ITEM: TIMESTEP
100000
ITEM: NUMBER OF ATOMS
400
ITEM: BOX BOUNDS pp pp pp
0.0000000000000000e+00 2.3904572186687872e+01
0.0000000000000000e+00 2.3904572186687872e+01
-5.9761430466719678e-01 5.9761430466719678e-01
ITEM: ATOMS id type xs ys zs
159 1 0.228436 0.0396013 0.5
273 1 0.228944 0.15406 0.5
112 1 0.147757 0.498454 0.5
173 1 0.0167512 0.163018 0.5
101 1 0.172499 0.167096 0.5
187 1 0.178341 0.0903975 0.5
47 1 0.151995 0.128449 0.5
334 1 0.0228022 0.300319 0.5
395 1 0.0578104 0.207412 0.5
61 1 0.0634494 0.163642 0.5
32 1 0.136212 0.43255 0.5
9 1 0.166714 0.2312 0.5
321 1 0.0917047 0.333378 0.5
205 1 0.098504 0.184844 0.5
25 1 0.189452 0.0508299 0.5
48 1 0.210562 0.197969 0.5
389 1 0.222228 0.244249 0.5
313 1 0.143861 0.315231 0.5
111 1 0.0497495 0.44697 0.5
118 1 0.139654 0.201633 0.5
76 1 0.0351592 0.0942591 0.5
102 1 0.117604 0.270672 0.5
68 1 0.168513 0.349908 0.5
79 1 0.0498171 0.250694 0.5
280 1 0.0156139 0.406157 0.5
359 1 0.209585 0.341596 0.5
194 1 0.033762 0.361821 0.5
113 1 0.0592951 0.490957 0.5
109 1 0.219146 0.451133 0.5
330 1 0.226284 0.111844 0.5
116 1 0.0809782 0.0653728 0.5
96 1 0.0913441 0.237982 0.5
154 1 0.180333 0.425408 0.5
153 1 0.077743 0.402383 0.5
298 1 0.098413 0.108043 0.5
301 1 0.0110419 0.204504 0.5
297 1 0.120881 0.068259 0.5
269 1 0.172188 0.464746 0.5
216 1 0.00310506 0.455068 0.5
57 1 0.217017 0.397144 0.5
393 1 0.182845 0.280425 0.5
176 1 0.070053 0.298045 0.5
287 1 0.0218837 0.0384617 0.5
23 1 0.156968 0.0224252 0.5
247 1 0.104132 0.0327205 0.5
83 1 0.237164 0.294807 0.5
110 1 0.0497991 0.00249 0.5
232 1 0.223512 0.493394 0.5
250 1 0.0449838 0.578311 0.5
318 1 0.0882229 0.575352 0.5
323 1 0.233281 0.639688 0.5
178 1 0.0039498 0.969966 0.5
235 1 0.135851 0.543598 0.5
396 1 0.238151 0.852428 0.5
148 1 0.119632 0.633247 0.5
290 1 0.211544 0.590228 0.5
369 1 0.154761 0.689577 0.5
73 1 0.160469 0.618776 0.5
362 1 0.0487132 0.617376 0.5
371 1 0.0690003 0.540663 0.5
191 1 0.140178 0.581071 0.5
349 1 0.189541 0.662649 0.5
87 1 0.113613 0.701429 0.5
246 1 0.0263957 0.653026 0.5
379 1 0.146973 0.944511 0.5
265 1 0.0632946 0.779069 0.5
58 1 0.0647181 0.952558 0.5
215 1 0.149558 0.787556 0.5
10 1 0.136252 0.983804 0.5
94 1 0.103704 0.502177 0.5
309 1 0.0721563 0.832198 0.5
30 1 0.0537849 0.905326 0.5
345 1 0.0246666 0.696448 0.5
50 1 0.001191 0.587379 0.5
108 1 0.0887326 0.660923 0.5
214 1 0.098429 0.926895 0.5
26 1 0.093182 0.991025 0.5
360 1 0.0240863 0.766721 0.5
105 1 0.106475 0.803564 0.5
19 1 0.179939 0.531899 0.5
80 1 0.0287045 0.868028 0.5
88 1 0.143874 0.827775 0.5
217 1 0.172061 0.859981 0.5
119 1 0.230599 0.5425 0.5
376 1 0.08408 0.876294 0.5
208 1 0.102943 0.743497 0.5
390 1 0.144244 0.897189 0.5
263 1 0.0247477 0.935305 0.5
222 1 0.186881 0.907675 0.5
31 1 0.063605 0.711669 0.5
65 1 0.210877 0.945824 0.5
348 1 0.170685 0.742617 0.5
78 1 0.0244757 0.53226 0.5
71 1 0.212759 0.813403 0.5
354 1 0.206311 0.698638 0.5
311 1 0.210721 0.75771 0.5
165 1 0.230447 0.89392 0.5
255 1 0.248942 0.714251 0.5
230 1 0.414929 0.437994 0.5
254 1 0.451876 0.31241 0.5
128 1 0.33544 0.138809 0.5
299 1 0.263932 0.239943 0.5
188 1 0.271475 0.492789 0.5
227 1 0.274699 0.0536816 0.5
317 1 0.334369 0.0821336 0.5
351 1 0.442357 0.17341 0.5
258 1 0.432055 0.0185395 0.5
387 1 0.272168 0.328881 0.5
174 1 0.383802 0.162165 0.5
373 1 0.473898 0.0167979 0.5
139 1 0.272201 0.186144 0.5
302 1 0.388339 0.112921 0.5
284 1 0.433491 0.105751 0.5
346 1 0.303069 0.22155 0.5
171 1 0.470422 0.0759218 0.5
85 1 0.307246 0.296413 0.5
29 1 0.34821 0.244826 0.5
289 1 0.322758 0.0416097 0.5
81 1 0.266625 0.411046 0.5
190 1 0.25437 0.00769343 0.5
291 1 0.360764 0.202758 0.5
226 1 0.487875 0.179879 0.5
126 1 0.424771 0.0607845 0.5
84 1 0.44873 0.464078 0.5
89 1 0.403118 0.20567 0.5
1 1 0.337291 0.394815 0.5
355 1 0.412358 0.395962 0.5
329 1 0.415219 0.352789 0.5
175 1 0.463304 0.360609 0.5
86 1 0.418581 0.251414 0.5
375 1 0.324653 0.492841 0.5
36 1 0.395313 0.481075 0.5
98 1 0.364004 0.293467 0.5
51 1 0.470948 0.139979 0.5
82 1 0.317245 0.450776 0.5
100 1 0.311669 0.355405 0.5
34 1 0.356751 0.431498 0.5
114 1 0.458262 0.257561 0.5
394 1 0.477461 0.22234 0.5
295 1 0.258434 0.368789 0.5
257 1 0.477762 0.412004 0.5
233 1 0.363502 0.341221 0.5
130 1 0.391062 0.038596 0.5
141 1 0.277968 0.132505 0.5
372 1 0.49046 0.48363 0.5
327 1 0.492818 0.302191 0.5
201 1 0.448353 0.799145 0.5
97 1 0.429342 0.921162 0.5
131 1 0.326962 0.867283 0.5
91 1 0.373966 0.918016 0.5
399 1 0.451562 0.845062 0.5
46 1 0.382794 0.974462 0.5
54 1 0.43412 0.964062 0.5
237 1 0.469644 0.742507 0.5
293 1 0.324397 0.543014 0.5
45 1 0.373719 0.56255 0.5
325 1 0.48308 0.538404 0.5
44 1 0.259852 0.793224 0.5
381 1 0.461406 0.699731 0.5
275 1 0.421224 0.708758 0.5
20 1 0.445003 0.505277 0.5
386 1 0.394803 0.600902 0.5
245 1 0.329054 0.740734 0.5
129 1 0.435973 0.565036 0.5
320 1 0.415687 0.653816 0.5
384 1 0.482576 0.597829 0.5
127 1 0.479828 0.969558 0.5
340 1 0.303998 0.633096 0.5
53 1 0.299991 0.817763 0.5
197 1 0.369228 0.640399 0.5
331 1 0.343731 0.596248 0.5
361 1 0.440445 0.608244 0.5
382 1 0.461402 0.645106 0.5
144 1 0.361189 0.781397 0.5
374 1 0.403418 0.799235 0.5
145 1 0.346154 0.826812 0.5
158 1 0.283396 0.544848 0.5
2 1 0.299726 0.997455 0.5
319 1 0.28542 0.944172 0.5
353 1 0.411178 0.839611 0.5
3 1 0.467566 0.905446 0.5
60 1 0.26079 0.67183 0.5
16 1 0.314747 0.700366 0.5
72 1 0.381486 0.732279 0.5
282 1 0.339518 0.988261 0.5
125 1 0.297947 0.898839 0.5
352 1 0.277371 0.860696 0.5
24 1 0.380925 0.683545 0.5
185 1 0.289163 0.588536 0.5
310 1 0.375976 0.877138 0.5
272 1 0.492123 0.795217 0.5
344 1 0.35968 0.515511 0.5
385 1 0.401866 0.527426 0.5
314 1 0.493241 0.8372 0.5
252 1 0.250526 0.965438 0.5
243 1 0.251832 0.599346 0.5
367 1 0.65437 0.338835 0.5
103 1 0.550043 0.416585 0.5
35 1 0.624831 0.443012 0.5
236 1 0.586123 0.487746 0.5
356 1 0.734112 0.0643085 0.5
336 1 0.5076 0.337994 0.5
170 1 0.540626 0.462722 0.5
231 1 0.719353 0.11374 0.5
166 1 0.694606 0.218308 0.5
366 1 0.7376 0.434143 0.5
347 1 0.556932 0.1172 0.5
335 1 0.586075 0.446547 0.5
5 1 0.547571 0.318326 0.5
67 1 0.593813 0.393929 0.5
363 1 0.580688 0.357232 0.5
398 1 0.617238 0.19645 0.5
18 1 0.593104 0.293546 0.5
206 1 0.667569 0.178512 0.5
239 1 0.677111 0.303529 0.5
157 1 0.607704 0.0552488 0.5
251 1 0.708926 0.474522 0.5
90 1 0.559398 0.236536 0.5
400 1 0.670521 0.455518 0.5
274 1 0.688252 0.0531393 0.5
14 1 0.634209 0.284841 0.5
40 1 0.599801 0.144777 0.5
115 1 0.613408 0.10366 0.5
133 1 0.547878 0.27639 0.5
64 1 0.614599 0.328543 0.5
39 1 0.565306 0.0544214 0.5
93 1 0.688507 0.137441 0.5
288 1 0.520377 0.38641 0.5
315 1 0.728642 0.162337 0.5
17 1 0.522585 0.139281 0.5
383 1 0.743636 0.308737 0.5
221 1 0.705027 0.263108 0.5
189 1 0.689619 0.420406 0.5
198 1 0.55869 0.181494 0.5
199 1 0.69627 0.348601 0.5
138 1 0.65368 0.216404 0.5
28 1 0.612458 0.249851 0.5
259 1 0.519646 0.243952 0.5
271 1 0.637045 0.487459 0.5
137 1 0.648006 0.404266 0.5
147 1 0.710817 0.00460546 0.5
285 1 0.652283 0.0216593 0.5
368 1 0.73768 0.357949 0.5
358 1 0.586336 0.0214491 0.5
378 1 0.740095 0.227389 0.5
266 1 0.513987 0.0557732 0.5
63 1 0.522384 0.0136007 0.5
200 1 0.513651 0.0956434 0.5
155 1 0.502007 0.444269 0.5
328 1 0.749063 0.478829 0.5
66 1 0.745056 0.744865 0.5
150 1 0.698675 0.609059 0.5
253 1 0.522167 0.516632 0.5
43 1 0.620288 0.603543 0.5
186 1 0.515828 0.622722 0.5
267 1 0.713271 0.963448 0.5
152 1 0.665987 0.859757 0.5
140 1 0.517081 0.920663 0.5
183 1 0.697251 0.519473 0.5
181 1 0.512181 0.877795 0.5
55 1 0.566082 0.699472 0.5
332 1 0.65372 0.547525 0.5
202 1 0.720489 0.704937 0.5
41 1 0.612804 0.563738 0.5
172 1 0.694332 0.747659 0.5
322 1 0.690966 0.663579 0.5
224 1 0.582209 0.967327 0.5
37 1 0.572612 0.895308 0.5
397 1 0.702305 0.559297 0.5
167 1 0.707571 0.861413 0.5
169 1 0.730574 0.653969 0.5
228 1 0.524289 0.577394 0.5
262 1 0.610962 0.651717 0.5
136 1 0.614974 0.715794 0.5
134 1 0.60879 0.77784 0.5
303 1 0.582278 0.622085 0.5
279 1 0.671357 0.981323 0.5
218 1 0.506618 0.698222 0.5
234 1 0.559493 0.765202 0.5
70 1 0.652389 0.655843 0.5
6 1 0.65404 0.90695 0.5
74 1 0.565766 0.570908 0.5
296 1 0.578248 0.808523 0.5
377 1 0.532423 0.796308 0.5
192 1 0.705869 0.817586 0.5
350 1 0.651396 0.805337 0.5
21 1 0.629826 0.960367 0.5
241 1 0.664078 0.713435 0.5
42 1 0.557162 0.855217 0.5
209 1 0.745221 0.534473 0.5
135 1 0.61069 0.918216 0.5
123 1 0.53164 0.965144 0.5
27 1 0.619621 0.850989 0.5
278 1 0.706771 0.920034 0.5
180 1 0.51158 0.739445 0.5
220 1 0.528453 0.66451 0.5
182 1 0.742597 0.581951 0.5
225 1 0.769529 0.146668 0.5
283 1 0.809968 0.215319 0.5
59 1 0.776612 0.450717 0.5
22 1 0.915105 0.415416 0.5
312 1 0.810058 0.0045078 0.5
163 1 0.810263 0.133513 0.5
337 1 0.791534 0.487005 0.5
270 1 0.884142 0.0294672 0.5
277 1 0.846344 0.0451079 0.5
195 1 0.973093 0.149024 0.5
56 1 0.986695 0.37405 0.5
210 1 0.923137 0.475343 0.5
268 1 0.957675 0.420228 0.5
223 1 0.877886 0.0715572 0.5
193 1 0.877994 0.170778 0.5
52 1 0.849259 0.119882 0.5
107 1 0.848896 0.245589 0.5
196 1 0.921975 0.20135 0.5
238 1 0.984635 0.06408 0.5
249 1 0.98542 0.107477 0.5
33 1 0.876944 0.435502 0.5
365 1 0.874561 0.377058 0.5
212 1 0.7746 0.0325757 0.5
338 1 0.796112 0.411368 0.5
75 1 0.9029 0.237507 0.5
12 1 0.899411 0.115436 0.5
142 1 0.840651 0.187856 0.5
121 1 0.90699 0.338503 0.5
370 1 0.826263 0.365515 0.5
286 1 0.838543 0.405126 0.5
99 1 0.864754 0.336428 0.5
229 1 0.903875 0.287825 0.5
307 1 0.925169 0.155332 0.5
164 1 0.757239 0.393806 0.5
256 1 0.817195 0.0813202 0.5
306 1 0.812022 0.263955 0.5
391 1 0.86337 0.475671 0.5
95 1 0.970617 0.19008 0.5
304 1 0.933187 0.374217 0.5
69 1 0.836707 0.301973 0.5
211 1 0.825192 0.441934 0.5
168 1 0.760686 0.192115 0.5
300 1 0.931573 0.0403281 0.5
308 1 0.959273 0.330476 0.5
122 1 0.765111 0.100542 0.5
207 1 0.762871 0.268205 0.5
364 1 0.938664 0.0877713 0.5
242 1 0.982308 0.0217529 0.5
184 1 0.785223 0.344558 0.5
276 1 0.848406 0.00429895 0.5
343 1 0.993746 0.24248 0.5
92 1 0.998374 0.33462 0.5
380 1 0.920562 0.940402 0.5
261 1 0.947278 0.625415 0.5
149 1 0.857131 0.547522 0.5
106 1 0.942986 0.833394 0.5
240 1 0.953741 0.751334 0.5
162 1 0.838064 0.617899 0.5
179 1 0.907206 0.655431 0.5
146 1 0.807629 0.657142 0.5
281 1 0.764864 0.982526 0.5
124 1 0.898934 0.829362 0.5
15 1 0.959729 0.990995 0.5
219 1 0.863104 0.668415 0.5
156 1 0.961309 0.580865 0.5
104 1 0.749124 0.793828 0.5
151 1 0.751018 0.837071 0.5
204 1 0.759481 0.91061 0.5
13 1 0.909023 0.699283 0.5
62 1 0.989092 0.797252 0.5
11 1 0.908778 0.605467 0.5
333 1 0.818404 0.698357 0.5
132 1 0.770284 0.620963 0.5
77 1 0.829016 0.947286 0.5
324 1 0.801863 0.915426 0.5
326 1 0.924345 0.787554 0.5
294 1 0.954074 0.88163 0.5
341 1 0.812854 0.779727 0.5
7 1 0.893798 0.754809 0.5
117 1 0.863212 0.713445 0.5
4 1 0.843628 0.837638 0.5
213 1 0.903862 0.524863 0.5
49 1 0.869951 0.795217 0.5
342 1 0.788264 0.816251 0.5
388 1 0.791579 0.547156 0.5
264 1 0.923896 0.567128 0.5
38 1 0.871549 0.591773 0.5
316 1 0.775781 0.870322 0.5
120 1 0.900751 0.871217 0.5
260 1 0.836934 0.881273 0.5
177 1 0.984973 0.506699 0.5
392 1 0.969586 0.92948 0.5
357 1 0.947768 0.677664 0.5
160 1 0.996059 0.844884 0.5
143 1 0.880337 0.916794 0.5
8 1 0.919119 0.979993 0.5
244 1 0.832263 0.514703 0.5
339 1 0.805405 0.740788 0.5
203 1 0.84539 0.75176 0.5
161 1 0.779274 0.711758 0.5
248 1 0.768742 0.66989 0.5
292 1 0.980359 0.705814 0.5
305 1 0.995602 0.896096 0.5
