ITEM: TIMESTEP
100000
ITEM: NUMBER OF ATOMS
400
ITEM: BOX BOUNDS pp pp pp
0.0000000000000000e+00 2.0519567041703080e+01
0.0000000000000000e+00 2.0519567041703080e+01
-5.1298917604257699e-01 5.1298917604257699e-01
ITEM: ATOMS id type xs ys zs
162 1 0.176733 0.462879 0.5
354 1 0.220732 0.0904144 0.5
197 1 0.172897 0.103385 0.5
34 1 0.122714 0.460146 0.5
322 1 0.0317711 0.0540685 0.5
348 1 0.234873 0.469544 0.5
182 1 0.13363 0.0798661 0.5
305 1 0.0492791 0.438298 0.5
377 1 0.196731 0.238876 0.5
268 1 0.231026 0.33178 0.5
122 1 0.152633 0.151613 0.5
316 1 0.0905344 0.0350582 0.5
184 1 0.122959 0.189909 0.5
332 1 0.0104748 0.257199 0.5
71 1 0.00310767 0.452681 0.5
199 1 0.113685 0.127203 0.5
151 1 0.0720481 0.0814415 0.5
195 1 0.0856894 0.49223 0.5
138 1 0.0356133 0.205229 0.5
25 1 0.0206264 0.147279 0.5
286 1 0.178377 0.19515 0.5
179 1 0.145852 0.0286405 0.5
173 1 0.0640859 0.126813 0.5
293 1 0.139075 0.23704 0.5
198 1 0.0569793 0.258104 0.5
227 1 0.0775596 0.175018 0.5
26 1 0.089432 0.226386 0.5
258 1 0.214939 0.284223 0.5
129 1 0.00708897 0.405502 0.5
64 1 0.0320159 0.309208 0.5
347 1 0.203696 0.144166 0.5
392 1 0.0131198 0.352711 0.5
254 1 0.101606 0.278837 0.5
159 1 0.177766 0.328847 0.5
123 1 0.132858 0.330088 0.5
51 1 0.163773 0.281392 0.5
70 1 0.231956 0.041271 0.5
58 1 0.0773812 0.328447 0.5
101 1 0.151085 0.377862 0.5
84 1 0.151136 0.423897 0.5
335 1 0.205439 0.372773 0.5
169 1 0.0485359 0.383407 0.5
318 1 0.103021 0.368387 0.5
24 1 0.101206 0.417671 0.5
207 1 0.185368 0.0580412 0.5
85 1 0.211267 0.428356 0.5
48 1 0.226276 0.190288 0.5
104 1 0.0301609 0.491797 0.5
93 1 0.196732 0.00650478 0.5
193 1 0.00680951 0.0105924 0.5
156 1 0.0543407 0.00285709 0.5
66 1 0.0225773 0.964073 0.5
140 1 0.0236154 0.859279 0.5
395 1 0.206527 0.510628 0.5
364 1 0.243476 0.606184 0.5
255 1 0.10325 0.540144 0.5
230 1 0.160453 0.557132 0.5
69 1 0.214945 0.556918 0.5
283 1 0.0823671 0.580981 0.5
285 1 0.185226 0.863269 0.5
359 1 0.0526217 0.625672 0.5
225 1 0.131544 0.598165 0.5
281 1 0.182355 0.602 0.5
370 1 0.0547088 0.535473 0.5
282 1 0.0527724 0.769189 0.5
257 1 0.0578761 0.674978 0.5
267 1 0.0993162 0.641019 0.5
90 1 0.210124 0.63938 0.5
337 1 0.117428 0.685699 0.5
333 1 0.150952 0.640537 0.5
61 1 0.0146246 0.655375 0.5
131 1 0.0503243 0.919298 0.5
253 1 0.075625 0.7234 0.5
92 1 0.150925 0.720852 0.5
244 1 0.179381 0.684181 0.5
19 1 0.163842 0.768687 0.5
259 1 0.209439 0.789912 0.5
183 1 0.0780312 0.810368 0.5
55 1 0.110851 0.846321 0.5
211 1 0.108465 0.756899 0.5
376 1 0.124233 0.800193 0.5
53 1 0.168707 0.921238 0.5
56 1 0.105949 0.917435 0.5
205 1 0.000706771 0.909523 0.5
353 1 0.0705658 0.872812 0.5
136 1 0.155615 0.973043 0.5
37 1 0.164828 0.819365 0.5
113 1 0.00462494 0.768563 0.5
43 1 0.0786174 0.959904 0.5
57 1 0.140672 0.882925 0.5
279 1 0.203838 0.960036 0.5
50 1 0.222388 0.836211 0.5
314 1 0.112127 0.99296 0.5
299 1 0.237879 0.755416 0.5
304 1 0.0251796 0.7138 0.5
7 1 0.0318621 0.808787 0.5
289 1 0.201785 0.724825 0.5
390 1 0.00577234 0.530971 0.5
100 1 0.218199 0.907985 0.5
334 1 0.0239466 0.584111 0.5
172 1 0.241935 0.996012 0.5
320 1 0.235758 0.685854 0.5
59 1 0.14854 0.508072 0.5
152 1 0.272974 0.301012 0.5
22 1 0.379438 0.0698319 0.5
31 1 0.446463 0.258772 0.5
208 1 0.403388 0.291154 0.5
65 1 0.478333 0.191883 0.5
5 1 0.382778 0.0204687 0.5
379 1 0.320035 0.0676011 0.5
18 1 0.254954 0.387438 0.5
6 1 0.426829 0.0632535 0.5
229 1 0.269352 0.431803 0.5
291 1 0.440676 0.470807 0.5
83 1 0.300702 0.114076 0.5
284 1 0.433206 0.00962041 0.5
345 1 0.475387 0.0471175 0.5
11 1 0.334378 0.153914 0.5
126 1 0.348501 0.104705 0.5
223 1 0.480016 0.0963587 0.5
266 1 0.393474 0.139987 0.5
103 1 0.434738 0.114413 0.5
10 1 0.433969 0.214409 0.5
20 1 0.49086 0.280208 0.5
87 1 0.284596 0.21212 0.5
130 1 0.471252 0.141499 0.5
112 1 0.256559 0.126543 0.5
366 1 0.304871 0.264446 0.5
118 1 0.332113 0.218544 0.5
245 1 0.433071 0.168277 0.5
329 1 0.322563 0.446558 0.5
219 1 0.353985 0.267828 0.5
77 1 0.28216 0.349156 0.5
246 1 0.326058 0.315491 0.5
302 1 0.384451 0.186023 0.5
224 1 0.333963 0.0216921 0.5
185 1 0.265583 0.0787265 0.5
383 1 0.342034 0.360823 0.5
170 1 0.379744 0.333087 0.5
341 1 0.387114 0.234404 0.5
157 1 0.302482 0.397832 0.5
368 1 0.394751 0.391988 0.5
82 1 0.424539 0.352376 0.5
361 1 0.278765 0.0286197 0.5
242 1 0.353978 0.411659 0.5
331 1 0.285266 0.165419 0.5
252 1 0.395516 0.491463 0.5
17 1 0.392018 0.444732 0.5
391 1 0.435248 0.419968 0.5
119 1 0.469075 0.366432 0.5
315 1 0.452184 0.307599 0.5
262 1 0.29316 0.481505 0.5
2 1 0.48838 0.408803 0.5
397 1 0.254272 0.248583 0.5
261 1 0.497069 0.00458928 0.5
233 1 0.357293 0.92486 0.5
196 1 0.351101 0.977517 0.5
382 1 0.44976 0.96584 0.5
108 1 0.47686 0.502694 0.5
287 1 0.349117 0.580598 0.5
373 1 0.402487 0.586209 0.5
387 1 0.458086 0.564632 0.5
27 1 0.475825 0.701619 0.5
67 1 0.396495 0.838301 0.5
206 1 0.289005 0.983256 0.5
89 1 0.3664 0.681474 0.5
124 1 0.412767 0.640699 0.5
325 1 0.260588 0.561209 0.5
88 1 0.458734 0.658338 0.5
60 1 0.454581 0.612015 0.5
149 1 0.427124 0.522754 0.5
23 1 0.376426 0.540261 0.5
141 1 0.422958 0.692332 0.5
241 1 0.468891 0.780528 0.5
54 1 0.337013 0.737331 0.5
41 1 0.38587 0.736328 0.5
15 1 0.265749 0.64833 0.5
251 1 0.453661 0.82937 0.5
175 1 0.491615 0.865879 0.5
396 1 0.277396 0.726779 0.5
367 1 0.44206 0.738855 0.5
166 1 0.296455 0.60871 0.5
339 1 0.314388 0.688983 0.5
243 1 0.258949 0.80053 0.5
181 1 0.319285 0.540871 0.5
163 1 0.397936 0.973676 0.5
8 1 0.327843 0.881693 0.5
362 1 0.354837 0.636865 0.5
307 1 0.303002 0.923572 0.5
301 1 0.363048 0.784515 0.5
192 1 0.412078 0.781221 0.5
107 1 0.305013 0.789348 0.5
40 1 0.468308 0.916435 0.5
363 1 0.262955 0.883049 0.5
135 1 0.336566 0.827614 0.5
194 1 0.440558 0.873643 0.5
381 1 0.410798 0.920066 0.5
296 1 0.285646 0.838902 0.5
134 1 0.374196 0.880076 0.5
158 1 0.255315 0.51433 0.5
389 1 0.494125 0.955203 0.5
277 1 0.344081 0.503433 0.5
238 1 0.529204 0.0512187 0.5
310 1 0.578116 0.035566 0.5
46 1 0.590148 0.468186 0.5
234 1 0.579577 0.0939748 0.5
280 1 0.623601 0.115635 0.5
110 1 0.62461 0.0334428 0.5
44 1 0.52619 0.100028 0.5
212 1 0.566837 0.140313 0.5
202 1 0.677759 0.137045 0.5
275 1 0.648998 0.0768425 0.5
188 1 0.638954 0.163798 0.5
400 1 0.680124 0.184861 0.5
201 1 0.521825 0.150504 0.5
174 1 0.589059 0.189345 0.5
312 1 0.677847 0.237272 0.5
213 1 0.728528 0.188391 0.5
313 1 0.548053 0.443785 0.5
326 1 0.637342 0.210997 0.5
63 1 0.626818 0.264018 0.5
128 1 0.7061 0.326809 0.5
210 1 0.577276 0.236779 0.5
324 1 0.693469 0.281777 0.5
148 1 0.724047 0.451796 0.5
14 1 0.540554 0.269261 0.5
30 1 0.585004 0.291689 0.5
216 1 0.649426 0.304219 0.5
167 1 0.731582 0.0404027 0.5
171 1 0.554529 0.334684 0.5
80 1 0.625305 0.344039 0.5
369 1 0.726213 0.122421 0.5
176 1 0.503122 0.32758 0.5
309 1 0.671962 0.368151 0.5
343 1 0.74769 0.294969 0.5
13 1 0.585978 0.373728 0.5
52 1 0.714728 0.387354 0.5
106 1 0.503527 0.230769 0.5
180 1 0.589493 0.420777 0.5
338 1 0.635996 0.45126 0.5
303 1 0.700177 0.0812971 0.5
203 1 0.628459 0.394036 0.5
178 1 0.685395 0.02905 0.5
350 1 0.539657 0.201406 0.5
94 1 0.675445 0.420994 0.5
111 1 0.53428 0.379709 0.5
375 1 0.682513 0.472016 0.5
393 1 0.724403 0.23755 0.5
247 1 0.746812 0.347786 0.5
308 1 0.502885 0.464467 0.5
42 1 0.634091 0.496289 0.5
147 1 0.736563 0.669989 0.5
215 1 0.694836 0.982295 0.5
125 1 0.741946 0.991913 0.5
232 1 0.593064 0.527167 0.5
327 1 0.683937 0.615675 0.5
231 1 0.532134 0.780872 0.5
330 1 0.520648 0.696825 0.5
168 1 0.563443 0.674883 0.5
153 1 0.503168 0.74157 0.5
248 1 0.504749 0.599835 0.5
161 1 0.595107 0.581527 0.5
365 1 0.570737 0.7424 0.5
220 1 0.593106 0.63581 0.5
295 1 0.656395 0.556671 0.5
351 1 0.711727 0.573863 0.5
29 1 0.593316 0.784283 0.5
321 1 0.638058 0.609371 0.5
300 1 0.636839 0.656513 0.5
270 1 0.623834 0.744133 0.5
39 1 0.605678 0.69642 0.5
146 1 0.687681 0.666573 0.5
133 1 0.599175 0.852159 0.5
290 1 0.656704 0.701182 0.5
120 1 0.674106 0.749724 0.5
95 1 0.710868 0.938684 0.5
352 1 0.625205 0.893576 0.5
269 1 0.650704 0.803239 0.5
236 1 0.555913 0.824854 0.5
240 1 0.695483 0.836652 0.5
12 1 0.557238 0.55538 0.5
121 1 0.648591 0.850313 0.5
164 1 0.60471 0.938596 0.5
28 1 0.690508 0.522202 0.5
81 1 0.673366 0.891426 0.5
115 1 0.575765 0.89716 0.5
323 1 0.660095 0.944506 0.5
79 1 0.649887 0.994006 0.5
68 1 0.555081 0.945501 0.5
78 1 0.716631 0.766075 0.5
190 1 0.520058 0.914551 0.5
360 1 0.704087 0.70911 0.5
371 1 0.741399 0.82045 0.5
189 1 0.501495 0.819552 0.5
16 1 0.745648 0.728241 0.5
114 1 0.537984 0.866864 0.5
33 1 0.740885 0.615268 0.5
1 1 0.528831 0.645422 0.5
273 1 0.551909 0.604699 0.5
102 1 0.598607 0.986985 0.5
394 1 0.726619 0.888592 0.5
228 1 0.538458 0.499718 0.5
272 1 0.737618 0.517525 0.5
109 1 0.502621 0.546947 0.5
200 1 0.549744 0.995084 0.5
127 1 0.961831 0.222281 0.5
226 1 0.901881 0.0861105 0.5
278 1 0.861013 0.429987 0.5
235 1 0.770947 0.211763 0.5
378 1 0.943347 0.473079 0.5
9 1 0.760543 0.0804554 0.5
73 1 0.981085 0.293869 0.5
355 1 0.916305 0.404709 0.5
165 1 0.958834 0.000716857 0.5
62 1 0.877903 0.0245023 0.5
142 1 0.857695 0.0679223 0.5
144 1 0.82124 0.456528 0.5
384 1 0.961103 0.151937 0.5
21 1 0.811092 0.0724994 0.5
75 1 0.892178 0.132985 0.5
388 1 0.923926 0.0421075 0.5
317 1 0.772653 0.43882 0.5
217 1 0.823997 0.155544 0.5
346 1 0.843045 0.110751 0.5
221 1 0.867679 0.183096 0.5
38 1 0.970637 0.370825 0.5
86 1 0.823638 0.212284 0.5
98 1 0.944 0.2645 0.5
274 1 0.900162 0.45331 0.5
186 1 0.914354 0.229575 0.5
374 1 0.91486 0.176296 0.5
36 1 0.780963 0.0200334 0.5
260 1 0.784102 0.259519 0.5
265 1 0.863357 0.237468 0.5
256 1 0.791673 0.119205 0.5
294 1 0.791558 0.326324 0.5
177 1 0.889401 0.283884 0.5
154 1 0.94394 0.105033 0.5
340 1 0.77862 0.489743 0.5
3 1 0.826346 0.273476 0.5
297 1 0.935414 0.316018 0.5
117 1 0.959384 0.421848 0.5
218 1 0.768593 0.391224 0.5
398 1 0.823832 0.360618 0.5
74 1 0.868298 0.335647 0.5
249 1 0.918793 0.358447 0.5
99 1 0.830307 0.0243494 0.5
150 1 0.816524 0.408034 0.5
209 1 0.876466 0.382226 0.5
237 1 0.972516 0.0580183 0.5
386 1 0.773307 0.163123 0.5
187 1 0.990723 0.185489 0.5
97 1 0.99516 0.0999146 0.5
349 1 0.829165 0.712766 0.5
250 1 0.976884 0.95325 0.5
132 1 0.80471 0.979211 0.5
357 1 0.861646 0.663266 0.5
32 1 0.798286 0.599311 0.5
292 1 0.914081 0.553593 0.5
4 1 0.9057 0.504926 0.5
116 1 0.830402 0.565444 0.5
76 1 0.935048 0.604951 0.5
155 1 0.865089 0.53603 0.5
276 1 0.974637 0.632927 0.5
222 1 0.969188 0.566929 0.5
191 1 0.844348 0.617081 0.5
160 1 0.852846 0.98082 0.5
288 1 0.793171 0.737739 0.5
271 1 0.889699 0.591583 0.5
311 1 0.927266 0.733103 0.5
328 1 0.973063 0.682124 0.5
319 1 0.821906 0.510969 0.5
49 1 0.88063 0.710349 0.5
204 1 0.917477 0.684214 0.5
214 1 0.903821 0.637546 0.5
96 1 0.976487 0.730221 0.5
72 1 0.845891 0.891408 0.5
35 1 0.85785 0.754001 0.5
380 1 0.954699 0.783141 0.5
399 1 0.93472 0.829373 0.5
342 1 0.76112 0.562588 0.5
45 1 0.766891 0.782214 0.5
358 1 0.867556 0.807307 0.5
105 1 0.983023 0.827139 0.5
372 1 0.781572 0.646371 0.5
263 1 0.956288 0.520998 0.5
306 1 0.906166 0.777776 0.5
239 1 0.960093 0.870979 0.5
143 1 0.913238 0.893002 0.5
344 1 0.81079 0.800173 0.5
145 1 0.889524 0.849581 0.5
356 1 0.789154 0.842085 0.5
336 1 0.78967 0.894086 0.5
137 1 0.91323 0.983516 0.5
298 1 0.824952 0.936246 0.5
139 1 0.874665 0.935216 0.5
385 1 0.756444 0.936086 0.5
47 1 0.837706 0.844926 0.5
91 1 0.931727 0.939359 0.5
264 1 0.781005 0.691072 0.5
