ITEM: TIMESTEP
100000
ITEM: NUMBER OF ATOMS
400
ITEM: BOX BOUNDS pp pp pp
0.0000000000000000e+00 2.0000000000000000e+01
0.0000000000000000e+00 2.0000000000000000e+01
-5.0000000000000000e-01 5.0000000000000000e-01
ITEM: ATOMS id type xs ys zs
101 1 0.203057 0.481354 0.5
339 1 0.0916399 0.471941 0.5
165 1 0.0239242 0.0877876 0.5
112 1 0.199819 0.0117487 0.5
28 1 0.240834 0.197492 0.5
320 1 0.0149053 0.035724 0.5
148 1 0.101026 0.0192745 0.5
170 1 0.14664 0.0305902 0.5
317 1 0.21785 0.0642887 0.5
150 1 0.033939 0.46094 0.5
337 1 0.0610652 0.0556151 0.5
332 1 0.207006 0.110923 0.5
256 1 0.110534 0.067205 0.5
24 1 0.221514 0.434729 0.5
197 1 0.0251633 0.220554 0.5
88 1 0.0784063 0.101501 0.5
195 1 0.130516 0.115886 0.5
260 1 0.166636 0.0812091 0.5
123 1 0.243941 0.149769 0.5
48 1 0.0710402 0.19643 0.5
392 1 0.0998802 0.151953 0.5
250 1 0.181756 0.15273 0.5
188 1 0.179643 0.202093 0.5
29 1 0.0773488 0.245152 0.5
208 1 0.222759 0.345236 0.5
319 1 0.122909 0.204785 0.5
7 1 0.175614 0.258257 0.5
54 1 0.228796 0.253261 0.5
255 1 0.0520802 0.141224 0.5
151 1 0.0403633 0.277575 0.5
334 1 0.125369 0.251053 0.5
271 1 0.144817 0.296512 0.5
172 1 0.195807 0.304961 0.5
142 1 0.00792136 0.327601 0.5
322 1 0.0954847 0.289732 0.5
44 1 0.116466 0.337513 0.5
93 1 0.166604 0.341817 0.5
393 1 0.145553 0.472193 0.5
311 1 0.0269013 0.372925 0.5
241 1 0.0596354 0.335616 0.5
96 1 0.0884926 0.374768 0.5
5 1 0.141408 0.386854 0.5
46 1 0.192065 0.387244 0.5
304 1 0.174378 0.431694 0.5
4 1 0.0552306 0.41389 0.5
354 1 0.122745 0.42953 0.5
161 1 0.0146028 0.173259 0.5
16 1 0.248327 0.301296 0.5
310 1 0.0053713 0.419823 0.5
140 1 0.0536913 0.00666992 0.5
229 1 0.0977144 0.918656 0.5
50 1 0.0560105 0.51129 0.5
153 1 0.0158106 0.976369 0.5
266 1 0.16984 0.518121 0.5
327 1 0.0294492 0.818545 0.5
290 1 0.0346795 0.553391 0.5
49 1 0.0883897 0.561739 0.5
252 1 0.141759 0.557926 0.5
185 1 0.193824 0.564841 0.5
269 1 0.146691 0.917018 0.5
78 1 0.0564355 0.597678 0.5
222 1 0.118021 0.60081 0.5
253 1 0.166846 0.60488 0.5
249 1 0.226913 0.528668 0.5
102 1 0.0318327 0.647498 0.5
38 1 0.0871152 0.642337 0.5
274 1 0.139329 0.648824 0.5
33 1 0.191332 0.660818 0.5
372 1 0.00793182 0.60281 0.5
129 1 0.0523093 0.691552 0.5
68 1 0.101341 0.696499 0.5
120 1 0.160551 0.695647 0.5
368 1 0.0029552 0.690253 0.5
18 1 0.0326919 0.734007 0.5
173 1 0.0820763 0.739195 0.5
156 1 0.12915 0.739846 0.5
394 1 0.195482 0.728122 0.5
366 1 0.0585439 0.86354 0.5
159 1 0.0616069 0.784152 0.5
280 1 0.169335 0.770336 0.5
14 1 0.224333 0.777628 0.5
171 1 0.0305466 0.90328 0.5
126 1 0.110627 0.78544 0.5
313 1 0.19408 0.814924 0.5
155 1 0.120213 0.514355 0.5
40 1 0.0953311 0.832747 0.5
247 1 0.235548 0.954931 0.5
381 1 0.118372 0.875253 0.5
309 1 0.142496 0.821333 0.5
199 1 0.220036 0.864932 0.5
353 1 0.0926812 0.97187 0.5
329 1 0.171526 0.86804 0.5
363 1 0.197384 0.911806 0.5
302 1 0.184912 0.958033 0.5
105 1 0.216377 0.611654 0.5
359 1 0.0522637 0.945249 0.5
360 1 0.0024453 0.518614 0.5
374 1 0.141382 0.975568 0.5
350 1 0.245051 0.666596 0.5
220 1 0.249736 0.908754 0.5
194 1 -2.11204e-05 0.778032 0.5
258 1 0.247243 0.731129 0.5
340 1 0.460996 0.380258 0.5
278 1 0.458958 0.191687 0.5
13 1 0.483692 0.0390405 0.5
230 1 0.265149 0.0982191 0.5
371 1 0.439299 0.0137152 0.5
390 1 0.420102 0.058159 0.5
83 1 0.358601 0.0350521 0.5
167 1 0.471004 0.0849744 0.5
75 1 0.406078 0.473915 0.5
352 1 0.311823 0.0731051 0.5
341 1 0.378125 0.087845 0.5
98 1 0.424196 0.107905 0.5
132 1 0.470785 0.133402 0.5
191 1 0.355665 0.46988 0.5
181 1 0.291887 0.14364 0.5
182 1 0.336721 0.117626 0.5
45 1 0.375664 0.142858 0.5
369 1 0.42411 0.156405 0.5
244 1 0.274132 0.239129 0.5
347 1 0.293495 0.19512 0.5
26 1 0.333771 0.168559 0.5
400 1 0.377884 0.190598 0.5
2 1 0.418658 0.227959 0.5
43 1 0.460167 0.473536 0.5
42 1 0.307201 0.466286 0.5
379 1 0.345153 0.28674 0.5
135 1 0.324359 0.236914 0.5
94 1 0.370794 0.23835 0.5
321 1 0.453129 0.28454 0.5
19 1 0.31131 0.024972 0.5
234 1 0.37988 0.332047 0.5
166 1 0.293541 0.283213 0.5
137 1 0.395008 0.282287 0.5
62 1 0.272083 0.343414 0.5
373 1 0.319188 0.333301 0.5
203 1 0.427211 0.328827 0.5
22 1 0.474795 0.237376 0.5
362 1 0.489613 0.418705 0.5
90 1 0.300926 0.384015 0.5
308 1 0.363175 0.375798 0.5
217 1 0.411473 0.378643 0.5
355 1 0.250246 0.388135 0.5
169 1 0.275637 0.430318 0.5
383 1 0.342004 0.422921 0.5
364 1 0.389545 0.428013 0.5
20 1 0.435753 0.433959 0.5
124 1 0.262471 0.0500673 0.5
141 1 0.482063 0.333556 0.5
295 1 0.263077 0.478638 0.5
285 1 0.252909 0.00295206 0.5
238 1 0.283362 0.534955 0.5
73 1 0.327335 0.511065 0.5
146 1 0.48985 0.831891 0.5
30 1 0.48601 0.931375 0.5
116 1 0.376563 0.516615 0.5
87 1 0.343464 0.971736 0.5
31 1 0.301934 0.583676 0.5
276 1 0.342986 0.555522 0.5
39 1 0.425903 0.529168 0.5
9 1 0.45863 0.569954 0.5
223 1 0.264806 0.62034 0.5
378 1 0.35015 0.604075 0.5
109 1 0.402212 0.65715 0.5
206 1 0.396176 0.584241 0.5
163 1 0.432229 0.617242 0.5
111 1 0.311083 0.642253 0.5
164 1 0.446135 0.748797 0.5
248 1 0.400198 0.707205 0.5
84 1 0.445795 0.698292 0.5
325 1 0.335025 0.706009 0.5
76 1 0.355995 0.661188 0.5
27 1 0.407848 0.780194 0.5
89 1 0.292607 0.974555 0.5
61 1 0.479576 0.990484 0.5
283 1 0.28805 0.689444 0.5
15 1 0.359498 0.749968 0.5
56 1 0.467491 0.791472 0.5
361 1 0.478444 0.522944 0.5
279 1 0.271688 0.784341 0.5
398 1 0.496076 0.702048 0.5
147 1 0.323432 0.781064 0.5
121 1 0.371758 0.817718 0.5
300 1 0.420365 0.826878 0.5
70 1 0.301512 0.823473 0.5
10 1 0.327774 0.866801 0.5
179 1 0.381934 0.876397 0.5
157 1 0.487823 0.612691 0.5
37 1 0.278581 0.87199 0.5
396 1 0.416944 0.908851 0.5
205 1 0.443172 0.86772 0.5
99 1 0.298702 0.924286 0.5
342 1 0.349583 0.909543 0.5
365 1 0.38835 0.945008 0.5
328 1 0.439699 0.961335 0.5
158 1 0.298927 0.740685 0.5
211 1 0.48989 0.88535 0.5
180 1 0.249064 0.572783 0.5
12 1 0.465884 0.654742 0.5
226 1 0.391381 0.998222 0.5
71 1 0.254613 0.828946 0.5
346 1 0.693312 0.338497 0.5
189 1 0.748335 0.012516 0.5
57 1 0.715795 0.293678 0.5
224 1 0.648688 0.0595458 0.5
110 1 0.528348 0.243649 0.5
375 1 0.559402 0.0970659 0.5
331 1 0.606363 0.0825698 0.5
80 1 0.657707 0.108896 0.5
214 1 0.693067 0.076048 0.5
316 1 0.537138 0.428738 0.5
270 1 0.6109 0.130993 0.5
60 1 0.664401 0.155027 0.5
380 1 0.561994 0.199776 0.5
133 1 0.703404 0.12554 0.5
21 1 0.512325 0.197751 0.5
314 1 0.611663 0.192243 0.5
386 1 0.641062 0.244451 0.5
100 1 0.672279 0.201551 0.5
63 1 0.701104 0.0293654 0.5
106 1 0.593228 0.244686 0.5
262 1 0.559049 0.281291 0.5
104 1 0.692869 0.245418 0.5
338 1 0.715686 0.179112 0.5
344 1 0.502839 0.291435 0.5
370 1 0.53994 0.323934 0.5
243 1 0.613606 0.291525 0.5
395 1 0.635989 0.337592 0.5
192 1 0.695265 0.436633 0.5
86 1 0.567219 0.0438558 0.5
108 1 0.51639 0.0740251 0.5
246 1 0.587599 0.333985 0.5
351 1 0.666079 0.29421 0.5
36 1 0.558894 0.152794 0.5
202 1 0.512812 0.372893 0.5
306 1 0.565918 0.382265 0.5
219 1 0.618822 0.391578 0.5
218 1 0.667904 0.382104 0.5
384 1 0.510573 0.470226 0.5
387 1 0.518034 0.128783 0.5
213 1 0.566864 0.486298 0.5
356 1 0.64264 0.435557 0.5
59 1 0.715959 0.38656 0.5
292 1 0.590799 0.435222 0.5
97 1 0.614588 0.476566 0.5
6 1 0.665897 0.480623 0.5
336 1 0.614393 0.0276047 0.5
35 1 0.527247 0.0196276 0.5
34 1 0.744766 0.0828214 0.5
281 1 0.734882 0.48804 0.5
201 1 0.739607 0.345521 0.5
212 1 0.658075 0.0060076 0.5
67 1 0.742146 0.235599 0.5
237 1 0.747584 0.443338 0.5
114 1 0.748703 0.58821 0.5
221 1 0.592815 0.594974 0.5
115 1 0.668601 0.527838 0.5
376 1 0.71071 0.681387 0.5
107 1 0.509933 0.567842 0.5
367 1 0.545181 0.60406 0.5
190 1 0.691052 0.744143 0.5
268 1 0.642984 0.57284 0.5
277 1 0.714302 0.536605 0.5
149 1 0.714065 0.931709 0.5
103 1 0.518124 0.652168 0.5
117 1 0.570986 0.649562 0.5
41 1 0.627341 0.626572 0.5
333 1 0.700211 0.585171 0.5
91 1 0.574911 0.545006 0.5
335 1 0.620079 0.672663 0.5
51 1 0.668009 0.650632 0.5
289 1 0.553256 0.69635 0.5
307 1 0.641502 0.766351 0.5
299 1 0.724257 0.631107 0.5
296 1 0.56448 0.985807 0.5
265 1 0.686052 0.804098 0.5
198 1 0.654163 0.706747 0.5
32 1 0.555222 0.747022 0.5
377 1 0.607434 0.72727 0.5
119 1 0.636959 0.815437 0.5
391 1 0.618289 0.525313 0.5
130 1 0.543025 0.858332 0.5
183 1 0.534856 0.793715 0.5
273 1 0.588553 0.786891 0.5
200 1 0.627902 0.862866 0.5
245 1 0.727106 0.832917 0.5
177 1 0.533044 0.91395 0.5
323 1 0.5826 0.885975 0.5
174 1 0.62874 0.913346 0.5
154 1 0.682888 0.852601 0.5
254 1 0.524534 0.960017 0.5
318 1 0.729293 0.780662 0.5
82 1 0.585365 0.833956 0.5
293 1 0.613188 0.980895 0.5
385 1 0.678517 0.900842 0.5
193 1 0.668221 0.952869 0.5
25 1 0.583596 0.940791 0.5
134 1 0.742222 0.724769 0.5
259 1 0.709415 0.979041 0.5
227 1 0.72298 0.883872 0.5
178 1 0.526026 0.518906 0.5
284 1 0.506255 0.751237 0.5
53 1 0.985367 0.469431 0.5
216 1 0.782958 0.0492875 0.5
261 1 0.84447 0.0545991 0.5
8 1 0.971954 0.061332 0.5
388 1 0.895315 0.0544862 0.5
294 1 0.935369 0.0238121 0.5
136 1 0.966156 0.379504 0.5
288 1 0.841124 0.102786 0.5
187 1 0.821933 0.18988 0.5
239 1 0.888384 0.10395 0.5
175 1 0.939527 0.0995883 0.5
358 1 0.978807 0.00466011 0.5
127 1 0.919668 0.142525 0.5
275 1 0.961029 0.170687 0.5
286 1 0.863479 0.152311 0.5
287 1 0.798259 0.145883 0.5
11 1 0.915446 0.190677 0.5
144 1 0.780117 0.498811 0.5
210 1 0.989198 0.280524 0.5
348 1 0.845721 0.242762 0.5
236 1 0.870258 0.200952 0.5
209 1 0.901604 0.241853 0.5
176 1 0.976807 0.217058 0.5
196 1 0.924943 0.470477 0.5
47 1 0.792342 0.237731 0.5
64 1 0.816244 0.283799 0.5
235 1 0.946065 0.258856 0.5
357 1 0.981309 0.127543 0.5
77 1 0.762901 0.280742 0.5
17 1 0.763987 0.388061 0.5
65 1 0.867284 0.289163 0.5
303 1 0.840641 0.331193 0.5
74 1 0.915045 0.311608 0.5
55 1 0.870888 0.3817 0.5
272 1 0.798262 0.433456 0.5
58 1 0.783172 0.323495 0.5
225 1 0.817537 0.37575 0.5
389 1 0.957105 0.429948 0.5
315 1 0.918551 0.366061 0.5
52 1 0.825285 0.474096 0.5
138 1 0.845866 0.429988 0.5
301 1 0.877333 0.465521 0.5
1 1 0.905111 0.417834 0.5
324 1 0.803893 0.00233863 0.5
95 1 0.765345 0.190135 0.5
168 1 0.790103 0.0984977 0.5
79 1 0.959581 0.330194 0.5
263 1 0.752798 0.133125 0.5
128 1 0.863457 0.00854515 0.5
207 1 0.978781 0.733067 0.5
297 1 0.90725 0.980936 0.5
143 1 0.816804 0.566717 0.5
131 1 0.923177 0.565247 0.5
204 1 0.954128 0.514628 0.5
231 1 0.950219 0.959256 0.5
145 1 0.805993 0.953684 0.5
152 1 0.788465 0.614412 0.5
66 1 0.872352 0.564221 0.5
92 1 0.892644 0.610269 0.5
298 1 0.820706 0.853909 0.5
345 1 0.945534 0.610126 0.5
291 1 0.842468 0.60895 0.5
3 1 0.862361 0.654558 0.5
326 1 0.917114 0.656542 0.5
160 1 0.852686 0.515888 0.5
240 1 0.763 0.969037 0.5
23 1 0.761805 0.660769 0.5
282 1 0.812973 0.660721 0.5
267 1 0.893825 0.697833 0.5
233 1 0.951929 0.690036 0.5
162 1 0.77028 0.86461 0.5
113 1 0.790636 0.708157 0.5
382 1 0.843495 0.703438 0.5
242 1 0.990078 0.933428 0.5
312 1 0.929226 0.737199 0.5
251 1 0.901122 0.514839 0.5
228 1 0.824012 0.750781 0.5
232 1 0.876392 0.741305 0.5
399 1 0.945324 0.782986 0.5
257 1 0.978981 0.648868 0.5
69 1 0.784551 0.807286 0.5
72 1 0.773743 0.759834 0.5
343 1 0.835446 0.805151 0.5
330 1 0.977716 0.823805 0.5
81 1 0.875257 0.837657 0.5
215 1 0.930265 0.836287 0.5
186 1 0.89035 0.785283 0.5
264 1 0.944506 0.907447 0.5
118 1 0.970866 0.563025 0.5
139 1 0.858921 0.885603 0.5
184 1 0.907048 0.878414 0.5
349 1 0.762929 0.919618 0.5
125 1 0.808254 0.903143 0.5
305 1 0.853567 0.938087 0.5
122 1 0.901531 0.926649 0.5
85 1 0.990453 0.875474 0.5
397 1 0.773429 0.545664 0.5
