ITEM: TIMESTEP
100000
ITEM: NUMBER OF ATOMS
400
ITEM: BOX BOUNDS pp pp pp
0.0000000000000000e+00 1.9069251784911849e+01
0.0000000000000000e+00 1.9069251784911849e+01
-4.7673129462279618e-01 4.7673129462279618e-01
ITEM: ATOMS id type xs ys zs
7 1 0.0429344 0.0304463 0.5
9 1 0.0968683 0.0394871 0.5
15 1 0.146055 0.0496552 0.5
44 1 0.159471 0.47261 0.5
50 1 0.212293 0.484593 0.5
20 1 0.203658 0.0531344 0.5
8 1 0.0690419 0.0811823 0.5
14 1 0.117475 0.0905432 0.5
116 1 0.172432 0.0979731 0.5
117 1 0.22425 0.0992 0.5
328 1 0.0345034 0.131626 0.5
13 1 0.0869103 0.128881 0.5
19 1 0.134052 0.142355 0.5
25 1 0.190622 0.146503 0.5
122 1 0.240186 0.157205 0.5
11 1 0.0389669 0.18205 0.5
18 1 0.0989405 0.179419 0.5
24 1 0.153417 0.190334 0.5
131 1 0.235428 0.292788 0.5
12 1 0.066449 0.223927 0.5
30 1 0.204743 0.193953 0.5
22 1 0.120563 0.231694 0.5
29 1 0.174104 0.238219 0.5
35 1 0.224068 0.242158 0.5
16 1 0.00978849 0.223642 0.5
17 1 0.0830664 0.275566 0.5
23 1 0.135844 0.288037 0.5
34 1 0.18737 0.28969 0.5
27 1 0.03217 0.267812 0.5
32 1 0.101519 0.325983 0.5
33 1 0.15725 0.334459 0.5
43 1 0.107928 0.472798 0.5
327 1 0.0193572 0.0842662 0.5
31 1 0.0481744 0.322282 0.5
40 1 0.207324 0.33887 0.5
41 1 0.0174966 0.364845 0.5
36 1 0.0677296 0.368907 0.5
28 1 0.124537 0.375021 0.5
39 1 0.178724 0.381208 0.5
141 1 0.226342 0.39492 0.5
37 1 0.101535 0.421741 0.5
38 1 0.150657 0.420992 0.5
42 1 0.0368466 0.413634 0.5
45 1 0.197378 0.436289 0.5
52 1 0.00282174 0.454957 0.5
47 1 0.0562913 0.458762 0.5
151 1 0.247496 0.443925 0.5
111 1 0.235656 0.00828699 0.5
106 1 0.180406 0.00355174 0.5
10 1 0.127094 0.000688285 0.5
75 1 0.245502 0.673405 0.5
53 1 0.0782328 0.515456 0.5
48 1 0.133504 0.523559 0.5
4 1 0.0774136 0.989545 0.5
57 1 0.0239277 0.50518 0.5
62 1 0.0502168 0.559723 0.5
58 1 0.102081 0.564551 0.5
6 1 0.0289885 0.978804 0.5
72 1 0.0162756 0.600859 0.5
68 1 0.0707167 0.61218 0.5
54 1 0.150006 0.576148 0.5
55 1 0.200092 0.573622 0.5
59 1 0.119439 0.616792 0.5
65 1 0.174238 0.625152 0.5
64 1 0.225005 0.619413 0.5
82 1 0.0307904 0.647603 0.5
63 1 0.0915719 0.658565 0.5
69 1 0.139896 0.665885 0.5
74 1 0.193984 0.670898 0.5
86 1 0.00254192 0.688252 0.5
78 1 0.055239 0.692921 0.5
73 1 0.107945 0.705283 0.5
79 1 0.156878 0.717063 0.5
87 1 0.0258427 0.735803 0.5
83 1 0.0753362 0.742849 0.5
80 1 0.209731 0.718827 0.5
89 1 0.12665 0.763066 0.5
84 1 0.179405 0.763162 0.5
85 1 0.232768 0.772964 0.5
92 1 0.0398716 0.78831 0.5
93 1 0.0902888 0.796368 0.5
88 1 0.149078 0.809354 0.5
95 1 0.202825 0.823812 0.5
49 1 0.181751 0.523509 0.5
97 1 0.0596896 0.837353 0.5
98 1 0.11313 0.842096 0.5
94 1 0.166535 0.859627 0.5
96 1 0.0356747 0.88368 0.5
3 1 0.08858 0.885858 0.5
90 1 0.22137 0.872137 0.5
2 1 0.057847 0.933157 0.5
99 1 0.140502 0.906342 0.5
100 1 0.189967 0.913316 0.5
1 1 0.00861885 0.926073 0.5
5 1 0.10481 0.94653 0.5
101 1 0.162434 0.957346 0.5
107 1 0.221098 0.956839 0.5
60 1 0.231837 0.533125 0.5
91 1 0.00805815 0.831479 0.5
191 1 0.248709 0.914507 0.5
108 1 0.285303 0.0190805 0.5
109 1 0.338 0.0259135 0.5
104 1 0.38888 0.0380012 0.5
199 1 0.440994 0.0390948 0.5
154 1 0.396634 0.459343 0.5
113 1 0.307972 0.0639474 0.5
119 1 0.355814 0.0748896 0.5
231 1 0.481462 0.275243 0.5
118 1 0.274986 0.107352 0.5
114 1 0.405876 0.0887528 0.5
110 1 0.45461 0.0858158 0.5
123 1 0.321175 0.115756 0.5
124 1 0.372365 0.127267 0.5
120 1 0.423928 0.133761 0.5
115 1 0.477581 0.133799 0.5
127 1 0.289505 0.162986 0.5
128 1 0.339069 0.166831 0.5
130 1 0.393754 0.173665 0.5
125 1 0.446708 0.178349 0.5
152 1 0.264202 0.490046 0.5
132 1 0.308163 0.215067 0.5
129 1 0.359714 0.214121 0.5
134 1 0.411387 0.218145 0.5
121 1 0.260146 0.208669 0.5
126 1 0.272107 0.255255 0.5
135 1 0.463551 0.226864 0.5
133 1 0.321503 0.266096 0.5
138 1 0.372084 0.265356 0.5
140 1 0.425699 0.275639 0.5
158 1 0.320982 0.496824 0.5
137 1 0.286248 0.303373 0.5
142 1 0.335857 0.311907 0.5
139 1 0.3965 0.31831 0.5
243 1 0.452291 0.318611 0.5
136 1 0.255264 0.353805 0.5
147 1 0.305262 0.356567 0.5
143 1 0.361647 0.355914 0.5
145 1 0.415119 0.365512 0.5
149 1 0.346405 0.450493 0.5
146 1 0.276954 0.401636 0.5
148 1 0.332314 0.401739 0.5
150 1 0.465881 0.367673 0.5
144 1 0.384267 0.407901 0.5
155 1 0.438625 0.411909 0.5
112 1 0.258672 0.0625104 0.5
250 1 0.448578 0.462888 0.5
153 1 0.299049 0.44643 0.5
249 1 0.488066 0.418082 0.5
105 1 0.496065 0.0469952 0.5
102 1 0.270525 0.967367 0.5
103 1 0.319334 0.973258 0.5
262 1 0.474072 0.512006 0.5
156 1 0.287101 0.536141 0.5
157 1 0.33907 0.544547 0.5
261 1 0.391995 0.548671 0.5
267 1 0.441428 0.559922 0.5
181 1 0.259289 0.823153 0.5
161 1 0.30674 0.583522 0.5
162 1 0.359064 0.591931 0.5
160 1 0.409601 0.597772 0.5
273 1 0.45946 0.610299 0.5
70 1 0.279569 0.63834 0.5
167 1 0.327654 0.629896 0.5
198 1 0.429954 0.985993 0.5
159 1 0.37874 0.646127 0.5
165 1 0.431678 0.653127 0.5
274 1 0.483952 0.658214 0.5
171 1 0.295325 0.686467 0.5
164 1 0.348851 0.687608 0.5
170 1 0.405767 0.700268 0.5
279 1 0.456528 0.702851 0.5
172 1 0.263326 0.72731 0.5
168 1 0.317679 0.730549 0.5
169 1 0.36946 0.744237 0.5
175 1 0.421309 0.752227 0.5
291 1 0.479383 0.752134 0.5
176 1 0.285285 0.77268 0.5
173 1 0.332865 0.785086 0.5
174 1 0.392617 0.803692 0.5
194 1 0.459901 0.94127 0.5
285 1 0.444939 0.802971 0.5
197 1 0.373091 0.981382 0.5
177 1 0.307999 0.82779 0.5
178 1 0.359837 0.838763 0.5
183 1 0.418261 0.846142 0.5
179 1 0.467795 0.850732 0.5
186 1 0.287012 0.873562 0.5
182 1 0.336556 0.88298 0.5
187 1 0.386163 0.883678 0.5
188 1 0.4382 0.894011 0.5
196 1 0.303008 0.925346 0.5
192 1 0.352996 0.93421 0.5
184 1 0.491175 0.895894 0.5
195 1 0.479447 0.998441 0.5
193 1 0.402127 0.939541 0.5
255 1 0.42312 0.507689 0.5
180 1 0.497238 0.803162 0.5
166 1 0.255891 0.577405 0.5
268 1 0.494871 0.56142 0.5
163 1 0.36838 0.502408 0.5
349 1 0.751162 0.32152 0.5
237 1 0.500559 0.323845 0.5
211 1 0.691693 0.0305562 0.5
206 1 0.737646 0.0137867 0.5
201 1 0.554355 0.0466916 0.5
209 1 0.608296 0.0608856 0.5
216 1 0.659362 0.0705955 0.5
247 1 0.732516 0.425097 0.5
208 1 0.566527 0.09686 0.5
203 1 0.623337 0.111242 0.5
212 1 0.713405 0.0809166 0.5
213 1 0.542616 0.140461 0.5
210 1 0.673426 0.119762 0.5
230 1 0.739551 0.130574 0.5
214 1 0.591715 0.150291 0.5
337 1 0.644207 0.160331 0.5
342 1 0.698435 0.164328 0.5
207 1 0.516505 0.0912412 0.5
220 1 0.555701 0.188132 0.5
215 1 0.607909 0.198732 0.5
222 1 0.670217 0.207356 0.5
345 1 0.719253 0.222025 0.5
225 1 0.51129 0.228196 0.5
221 1 0.572281 0.240182 0.5
228 1 0.626061 0.247267 0.5
226 1 0.532808 0.277436 0.5
341 1 0.677226 0.257892 0.5
346 1 0.73242 0.272549 0.5
227 1 0.588734 0.296789 0.5
217 1 0.64523 0.293418 0.5
248 1 0.698058 0.309879 0.5
204 1 0.641966 0.0199404 0.5
232 1 0.555751 0.335625 0.5
229 1 0.604665 0.346686 0.5
223 1 0.661902 0.351556 0.5
238 1 0.520307 0.378839 0.5
233 1 0.574635 0.387892 0.5
234 1 0.627885 0.394012 0.5
353 1 0.716381 0.36993 0.5
239 1 0.538485 0.431403 0.5
236 1 0.679159 0.407765 0.5
202 1 0.58393 0.00237933 0.5
240 1 0.599805 0.437777 0.5
235 1 0.65008 0.447037 0.5
242 1 0.697477 0.458653 0.5
245 1 0.615617 0.486246 0.5
256 1 0.503696 0.470186 0.5
244 1 0.566096 0.47512 0.5
241 1 0.665056 0.497196 0.5
219 1 0.506895 0.177858 0.5
200 1 0.533501 0.00214813 0.5
263 1 0.529466 0.5138 0.5
251 1 0.580389 0.524915 0.5
252 1 0.63257 0.535847 0.5
313 1 0.744637 0.918248 0.5
205 1 0.668146 0.973185 0.5
258 1 0.687967 0.546204 0.5
253 1 0.739834 0.55357 0.5
269 1 0.543531 0.571442 0.5
257 1 0.596411 0.574339 0.5
264 1 0.651614 0.582973 0.5
265 1 0.703411 0.597163 0.5
275 1 0.511252 0.614766 0.5
281 1 0.564255 0.618065 0.5
282 1 0.614672 0.620295 0.5
286 1 0.533897 0.660594 0.5
293 1 0.585608 0.670044 0.5
270 1 0.670518 0.635524 0.5
271 1 0.723379 0.643649 0.5
246 1 0.719729 0.505728 0.5
287 1 0.639011 0.677355 0.5
283 1 0.690728 0.684577 0.5
292 1 0.555785 0.70745 0.5
306 1 0.610037 0.718834 0.5
299 1 0.661913 0.728431 0.5
294 1 0.71358 0.730666 0.5
297 1 0.529197 0.75245 0.5
298 1 0.580254 0.761125 0.5
305 1 0.628808 0.774218 0.5
303 1 0.548879 0.804608 0.5
304 1 0.600156 0.816429 0.5
300 1 0.68127 0.77506 0.5
320 1 0.720289 0.966796 0.5
185 1 0.521459 0.846831 0.5
311 1 0.650966 0.820632 0.5
312 1 0.702148 0.819975 0.5
309 1 0.570043 0.863883 0.5
310 1 0.619165 0.867844 0.5
307 1 0.67078 0.866223 0.5
308 1 0.723767 0.869534 0.5
190 1 0.541255 0.907115 0.5
316 1 0.591034 0.916073 0.5
318 1 0.644066 0.912645 0.5
295 1 0.734449 0.782184 0.5
315 1 0.564049 0.958537 0.5
317 1 0.616526 0.96483 0.5
319 1 0.693905 0.922634 0.5
276 1 0.746972 0.68972 0.5
189 1 0.508758 0.954267 0.5
280 1 0.50509 0.70549 0.5
398 1 0.792591 0.0105643 0.5
397 1 0.844733 0.0121512 0.5
61 1 0.952223 0.452351 0.5
347 1 0.772876 0.232566 0.5
321 1 0.896903 0.02139 0.5
322 1 0.945804 0.0291509 0.5
254 1 0.761293 0.469536 0.5
224 1 0.813057 0.0565171 0.5
325 1 0.86277 0.0612343 0.5
326 1 0.912334 0.0708371 0.5
330 1 0.962866 0.0786418 0.5
338 1 0.788799 0.146648 0.5
329 1 0.817428 0.107921 0.5
218 1 0.87841 0.109451 0.5
334 1 0.930054 0.117106 0.5
331 1 0.981419 0.124794 0.5
344 1 0.807496 0.196413 0.5
339 1 0.836885 0.156882 0.5
335 1 0.888519 0.15901 0.5
336 1 0.940116 0.170686 0.5
333 1 0.758963 0.0604658 0.5
350 1 0.821281 0.247654 0.5
340 1 0.856274 0.203445 0.5
348 1 0.906931 0.209049 0.5
21 1 0.957967 0.219019 0.5
354 1 0.785013 0.285209 0.5
358 1 0.837326 0.294685 0.5
355 1 0.872831 0.252746 0.5
351 1 0.929267 0.263866 0.5
26 1 0.980963 0.267488 0.5
357 1 0.800692 0.340512 0.5
364 1 0.854276 0.347352 0.5
359 1 0.890724 0.303936 0.5
356 1 0.945392 0.312241 0.5
362 1 0.765707 0.381341 0.5
363 1 0.821786 0.386452 0.5
368 1 0.87716 0.392006 0.5
51 1 0.910659 0.35236 0.5
360 1 0.964298 0.358938 0.5
366 1 0.785042 0.425707 0.5
367 1 0.843259 0.435398 0.5
56 1 0.935477 0.403713 0.5
66 1 0.913292 0.484256 0.5
370 1 0.811083 0.47459 0.5
372 1 0.89425 0.438531 0.5
371 1 0.861145 0.483079 0.5
324 1 0.993167 0.0341107 0.5
46 1 0.987848 0.407072 0.5
67 1 0.974323 0.497749 0.5
332 1 0.989208 0.174922 0.5
352 1 0.997546 0.316308 0.5
343 1 0.757206 0.184808 0.5
394 1 0.876716 0.97376 0.5
375 1 0.831456 0.532976 0.5
376 1 0.883523 0.533187 0.5
399 1 0.928001 0.980523 0.5
361 1 0.795717 0.570824 0.5
380 1 0.93304 0.532668 0.5
259 1 0.755674 0.601935 0.5
278 1 0.850235 0.578017 0.5
369 1 0.912725 0.581256 0.5
76 1 0.964907 0.590792 0.5
365 1 0.819325 0.615617 0.5
373 1 0.878501 0.620443 0.5
378 1 0.929285 0.627443 0.5
77 1 0.980753 0.639908 0.5
272 1 0.779806 0.644358 0.5
284 1 0.84938 0.660966 0.5
374 1 0.902045 0.66842 0.5
71 1 0.991221 0.545697 0.5
266 1 0.79796 0.69418 0.5
290 1 0.859741 0.711798 0.5
379 1 0.950529 0.68103 0.5
277 1 0.76524 0.738177 0.5
384 1 0.911783 0.719358 0.5
81 1 0.967744 0.727463 0.5
288 1 0.817046 0.744163 0.5
382 1 0.87976 0.758927 0.5
388 1 0.934694 0.765716 0.5
289 1 0.787286 0.787663 0.5
377 1 0.838693 0.78932 0.5
383 1 0.906885 0.808922 0.5
392 1 0.990183 0.775143 0.5
260 1 0.781298 0.517405 0.5
381 1 0.810221 0.831614 0.5
385 1 0.862221 0.83794 0.5
391 1 0.95831 0.813856 0.5
296 1 0.773912 0.876299 0.5
387 1 0.927408 0.856282 0.5
400 1 0.978692 0.872393 0.5
302 1 0.830827 0.87939 0.5
386 1 0.885916 0.882523 0.5
396 1 0.956461 0.916893 0.5
395 1 0.822937 0.96501 0.5
323 1 0.976862 0.970512 0.5
389 1 0.800557 0.920048 0.5
393 1 0.855387 0.923749 0.5
390 1 0.906816 0.928411 0.5
314 1 0.771808 0.964845 0.5
301 1 0.754184 0.827672 0.5
