ITEM: TIMESTEP
100000
ITEM: NUMBER OF ATOMS
400
ITEM: BOX BOUNDS pp pp pp
0.0000000000000000e+00 2.2360679774997898e+01
0.0000000000000000e+00 2.2360679774997898e+01
-5.5901699437494745e-01 5.5901699437494745e-01
ITEM: ATOMS id type xs ys zs
270 1 0.225471 0.120772 0.5
131 1 0.0116658 0.255828 0.5
58 1 0.214823 0.468603 0.5
88 1 0.135534 0.48947 0.5
39 1 0.196133 0.295556 0.5
167 1 0.146981 0.0819109 0.5
78 1 0.24062 0.337873 0.5
90 1 0.189579 0.0753652 0.5
16 1 0.0359191 0.103769 0.5
192 1 0.12745 0.437887 0.5
350 1 0.222744 0.174217 0.5
346 1 0.24779 0.211823 0.5
194 1 0.0944258 0.0342716 0.5
268 1 0.166813 0.174042 0.5
182 1 0.236296 0.398223 0.5
260 1 0.0227634 0.169304 0.5
247 1 0.17507 0.125995 0.5
83 1 0.054574 0.210409 0.5
211 1 0.15381 0.224542 0.5
175 1 0.158449 0.0417294 0.5
85 1 0.0507907 0.0251216 0.5
336 1 0.129885 0.138824 0.5
5 1 0.0930049 0.185343 0.5
248 1 0.0969143 0.228511 0.5
393 1 0.196845 0.21909 0.5
174 1 0.0820219 0.449502 0.5
340 1 0.0475879 0.41788 0.5
44 1 0.0248007 0.30325 0.5
235 1 0.0652182 0.258155 0.5
369 1 0.10176 0.100629 0.5
120 1 0.157378 0.276617 0.5
265 1 0.0124047 0.380082 0.5
309 1 0.0685889 0.311692 0.5
371 1 0.201665 0.0319407 0.5
333 1 0.0659911 0.139938 0.5
202 1 0.144238 0.385657 0.5
97 1 0.230887 0.0671291 0.5
381 1 0.155586 0.319149 0.5
164 1 0.0562808 0.353557 0.5
258 1 0.113011 0.301893 0.5
361 1 0.174142 0.448336 0.5
27 1 0.243524 0.266247 0.5
216 1 0.0875167 0.400756 0.5
117 1 0.0643249 0.0652557 0.5
81 1 0.194219 0.346992 0.5
314 1 0.014584 0.469694 0.5
203 1 0.186253 0.405686 0.5
205 1 0.106865 0.359223 0.5
193 1 0.216314 0.921087 0.5
287 1 0.0743107 0.944751 0.5
118 1 0.179497 0.815179 0.5
51 1 0.0921915 0.990071 0.5
387 1 0.227493 0.642762 0.5
155 1 0.192558 0.72472 0.5
332 1 0.150067 0.872296 0.5
50 1 0.221795 0.98386 0.5
280 1 0.199211 0.869324 0.5
17 1 0.12913 0.593208 0.5
285 1 0.0926141 0.556059 0.5
397 1 0.13251 0.532952 0.5
1 1 0.00909079 0.675295 0.5
236 1 0.0806637 0.669593 0.5
20 1 0.16504 0.55686 0.5
67 1 0.129633 0.733371 0.5
56 1 0.0669053 0.596064 0.5
207 1 0.208737 0.586773 0.5
172 1 0.0226528 0.552112 0.5
394 1 0.0652608 0.75874 0.5
126 1 0.185314 0.65934 0.5
375 1 0.01907 0.597553 0.5
29 1 0.221171 0.688171 0.5
382 1 0.0710398 0.824346 0.5
145 1 0.136279 0.82359 0.5
152 1 0.133467 0.673705 0.5
132 1 0.207811 0.770786 0.5
326 1 0.100592 0.625876 0.5
121 1 0.149554 0.63052 0.5
289 1 0.107044 0.907079 0.5
224 1 0.0235125 0.812253 0.5
149 1 0.181717 0.511888 0.5
198 1 0.0434604 0.717903 0.5
53 1 0.0107436 0.85513 0.5
323 1 0.117428 0.77723 0.5
348 1 0.0347707 0.638304 0.5
55 1 0.0105566 0.763511 0.5
92 1 0.1739 0.957893 0.5
154 1 0.00712738 0.943844 0.5
400 1 0.0969232 0.860397 0.5
209 1 0.240002 0.505755 0.5
183 1 0.240686 0.848718 0.5
377 1 0.166782 0.911568 0.5
124 1 0.212008 0.542383 0.5
75 1 0.00822515 0.98664 0.5
300 1 0.0596513 0.891644 0.5
215 1 0.1237 0.946324 0.5
189 1 0.24152 0.802832 0.5
10 1 0.0878895 0.51161 0.5
133 1 0.0427825 0.509658 0.5
275 1 0.149166 0.993358 0.5
178 1 0.281964 0.396727 0.5
297 1 0.266735 0.132683 0.5
288 1 0.495622 0.11361 0.5
171 1 0.41809 0.433401 0.5
34 1 0.281301 0.0428817 0.5
18 1 0.468032 0.313191 0.5
108 1 0.418077 0.0485332 0.5
221 1 0.449728 0.0950644 0.5
59 1 0.377438 0.0100519 0.5
250 1 0.361615 0.4577 0.5
312 1 0.316285 0.459553 0.5
392 1 0.402107 0.482882 0.5
95 1 0.341914 0.495929 0.5
296 1 0.403839 0.144769 0.5
384 1 0.377842 0.0884817 0.5
379 1 0.279008 0.181101 0.5
277 1 0.311005 0.128129 0.5
269 1 0.364256 0.15736 0.5
351 1 0.322341 0.0266068 0.5
386 1 0.282834 0.0854193 0.5
8 1 0.326812 0.085974 0.5
372 1 0.323433 0.169859 0.5
190 1 0.473411 0.262954 0.5
180 1 0.332326 0.329763 0.5
96 1 0.415716 0.190683 0.5
199 1 0.474585 0.444237 0.5
25 1 0.428949 0.244654 0.5
113 1 0.449595 0.483961 0.5
162 1 0.465743 0.210591 0.5
398 1 0.323219 0.262752 0.5
239 1 0.320932 0.215891 0.5
226 1 0.460863 0.0459395 0.5
316 1 0.368439 0.231343 0.5
35 1 0.356006 0.291267 0.5
321 1 0.436943 0.344288 0.5
352 1 0.282431 0.244537 0.5
324 1 0.276005 0.298333 0.5
158 1 0.413101 0.29562 0.5
222 1 0.293134 0.354957 0.5
264 1 0.454567 0.165425 0.5
15 1 0.386648 0.334005 0.5
200 1 0.401615 0.374399 0.5
378 1 0.440404 0.395978 0.5
298 1 0.347702 0.411949 0.5
181 1 0.358512 0.370646 0.5
70 1 0.420956 0.00533817 0.5
173 1 0.279993 0.493786 0.5
105 1 0.257013 0.444466 0.5
257 1 0.498122 0.496417 0.5
233 1 0.25646 0.558511 0.5
49 1 0.454798 0.956308 0.5
263 1 0.367862 0.965839 0.5
3 1 0.285378 0.828744 0.5
11 1 0.43362 0.596535 0.5
395 1 0.293397 0.87777 0.5
291 1 0.29683 0.578096 0.5
98 1 0.342019 0.645816 0.5
311 1 0.447246 0.533655 0.5
273 1 0.413965 0.96171 0.5
179 1 0.426989 0.641569 0.5
54 1 0.25365 0.892101 0.5
385 1 0.491377 0.987943 0.5
338 1 0.253389 0.945561 0.5
66 1 0.309553 0.942143 0.5
234 1 0.298808 0.633082 0.5
313 1 0.344361 0.700087 0.5
341 1 0.421152 0.686648 0.5
109 1 0.386357 0.661794 0.5
232 1 0.284923 0.99845 0.5
147 1 0.476754 0.637932 0.5
104 1 0.27561 0.672088 0.5
308 1 0.346249 0.74417 0.5
185 1 0.386096 0.764972 0.5
356 1 0.432836 0.76259 0.5
32 1 0.260067 0.719338 0.5
168 1 0.421846 0.90282 0.5
255 1 0.414132 0.816897 0.5
305 1 0.302727 0.709321 0.5
293 1 0.448703 0.864041 0.5
42 1 0.471907 0.907079 0.5
344 1 0.278054 0.778832 0.5
176 1 0.467603 0.790646 0.5
141 1 0.49697 0.844116 0.5
46 1 0.358994 0.805929 0.5
146 1 0.35253 0.573786 0.5
61 1 0.379726 0.618285 0.5
69 1 0.332998 0.843481 0.5
229 1 0.322562 0.53989 0.5
144 1 0.258193 0.604699 0.5
243 1 0.323537 0.780681 0.5
2 1 0.468199 0.715051 0.5
110 1 0.481078 0.594793 0.5
220 1 0.366331 0.869651 0.5
302 1 0.38294 0.920082 0.5
303 1 0.339279 0.902965 0.5
245 1 0.384194 0.540601 0.5
31 1 0.496294 0.759655 0.5
294 1 0.720731 0.376678 0.5
374 1 0.691066 0.500007 0.5
358 1 0.621063 0.0527096 0.5
74 1 0.603471 0.101244 0.5
99 1 0.543646 0.398053 0.5
122 1 0.717085 0.331788 0.5
62 1 0.650121 0.133204 0.5
339 1 0.710204 0.0935222 0.5
281 1 0.605553 0.149698 0.5
47 1 0.548758 0.256375 0.5
363 1 0.628829 0.228103 0.5
217 1 0.652552 0.187951 0.5
138 1 0.610226 0.461598 0.5
186 1 0.593483 0.196299 0.5
195 1 0.504516 0.050756 0.5
231 1 0.633615 0.27934 0.5
274 1 0.505656 0.154024 0.5
72 1 0.554839 0.347282 0.5
225 1 0.594614 0.261218 0.5
37 1 0.689793 0.152566 0.5
380 1 0.527919 0.445887 0.5
319 1 0.601893 0.334472 0.5
63 1 0.673849 0.258984 0.5
364 1 0.653569 0.326392 0.5
237 1 0.586331 0.015885 0.5
208 1 0.723198 0.0237675 0.5
30 1 0.506264 0.34159 0.5
12 1 0.586715 0.395007 0.5
140 1 0.74945 0.117414 0.5
102 1 0.743423 0.165548 0.5
197 1 0.711448 0.440541 0.5
347 1 0.572503 0.441144 0.5
301 1 0.560636 0.136993 0.5
57 1 0.675781 0.41484 0.5
304 1 0.704029 0.20039 0.5
290 1 0.678742 0.360618 0.5
388 1 0.627986 0.419649 0.5
153 1 0.663264 0.07033 0.5
79 1 0.548203 0.188166 0.5
80 1 0.50002 0.390042 0.5
100 1 0.670284 0.458261 0.5
367 1 0.627787 0.374665 0.5
135 1 0.573637 0.296829 0.5
360 1 0.731452 0.478015 0.5
7 1 0.714347 0.28514 0.5
161 1 0.556723 0.0482416 0.5
87 1 0.537396 0.0905506 0.5
106 1 0.652962 0.017322 0.5
376 1 0.509729 0.295228 0.5
373 1 0.741108 0.225156 0.5
22 1 0.507246 0.235833 0.5
107 1 0.556947 0.492735 0.5
286 1 0.648521 0.496859 0.5
370 1 0.567967 0.61189 0.5
148 1 0.689828 0.992949 0.5
188 1 0.604732 0.639023 0.5
24 1 0.607821 0.572067 0.5
345 1 0.601718 0.779408 0.5
307 1 0.56547 0.535917 0.5
187 1 0.60192 0.686126 0.5
93 1 0.522552 0.806665 0.5
14 1 0.743308 0.554238 0.5
201 1 0.723073 0.956569 0.5
343 1 0.679789 0.826689 0.5
251 1 0.559372 0.70396 0.5
359 1 0.565709 0.658265 0.5
240 1 0.597477 0.728389 0.5
292 1 0.59558 0.901893 0.5
399 1 0.648605 0.538923 0.5
94 1 0.650092 0.658014 0.5
163 1 0.557696 0.770821 0.5
396 1 0.664635 0.603699 0.5
330 1 0.710529 0.614902 0.5
337 1 0.567785 0.819799 0.5
177 1 0.525077 0.627425 0.5
272 1 0.667141 0.956404 0.5
249 1 0.640275 0.86188 0.5
43 1 0.618123 0.938514 0.5
241 1 0.600533 0.50829 0.5
137 1 0.692462 0.56154 0.5
299 1 0.62193 0.981518 0.5
228 1 0.6431 0.715741 0.5
362 1 0.663038 0.901506 0.5
279 1 0.741233 0.876533 0.5
64 1 0.701055 0.749607 0.5
206 1 0.713306 0.910358 0.5
91 1 0.513306 0.88455 0.5
391 1 0.635809 0.814337 0.5
112 1 0.533593 0.579182 0.5
282 1 0.57187 0.864713 0.5
52 1 0.693558 0.870495 0.5
320 1 0.710302 0.791687 0.5
271 1 0.521712 0.7259 0.5
218 1 0.515048 0.94709 0.5
4 1 0.722287 0.832823 0.5
103 1 0.502052 0.545767 0.5
315 1 0.511571 0.677653 0.5
310 1 0.649643 0.758127 0.5
166 1 0.555254 0.918277 0.5
306 1 0.569624 0.961217 0.5
210 1 0.702307 0.660515 0.5
357 1 0.730371 0.718183 0.5
73 1 0.537062 0.995773 0.5
101 1 0.901596 0.340604 0.5
365 1 0.856943 0.0769237 0.5
150 1 0.833888 0.465547 0.5
254 1 0.97564 0.341146 0.5
71 1 0.922499 0.383135 0.5
48 1 0.919462 0.471828 0.5
253 1 0.872863 0.483738 0.5
327 1 0.904932 0.215614 0.5
156 1 0.754263 0.406582 0.5
86 1 0.810673 0.128453 0.5
204 1 0.946977 0.0420168 0.5
60 1 0.972196 0.283059 0.5
214 1 0.789364 0.164263 0.5
213 1 0.94046 0.086767 0.5
329 1 0.970018 0.459098 0.5
223 1 0.855391 0.128697 0.5
238 1 0.994222 0.138431 0.5
262 1 0.790807 0.0903483 0.5
41 1 0.912998 0.121065 0.5
354 1 0.931207 0.250827 0.5
295 1 0.942332 0.423173 0.5
125 1 0.959369 0.17084 0.5
219 1 0.924762 0.303668 0.5
212 1 0.899981 0.0601331 0.5
355 1 0.755695 0.267423 0.5
276 1 0.841429 0.23228 0.5
157 1 0.907149 0.163664 0.5
244 1 0.885188 0.274647 0.5
246 1 0.785058 0.467235 0.5
115 1 0.785628 0.211175 0.5
283 1 0.80169 0.0093603 0.5
266 1 0.803176 0.253031 0.5
21 1 0.871359 0.190554 0.5
342 1 0.840569 0.278102 0.5
325 1 0.875981 0.398976 0.5
127 1 0.78099 0.347635 0.5
383 1 0.858496 0.024279 0.5
318 1 0.804789 0.310215 0.5
184 1 0.869668 0.31434 0.5
331 1 0.823045 0.050321 0.5
261 1 0.757773 0.0499663 0.5
33 1 0.855842 0.355245 0.5
335 1 0.797499 0.411285 0.5
116 1 0.967596 0.384967 0.5
26 1 0.892487 0.439445 0.5
134 1 0.988906 0.209749 0.5
160 1 0.990698 0.0314574 0.5
142 1 0.911471 0.00515389 0.5
170 1 0.9982 0.0772001 0.5
130 1 0.998357 0.424324 0.5
89 1 0.752526 0.797542 0.5
368 1 0.870134 0.532055 0.5
165 1 0.882644 0.9699 0.5
366 1 0.845758 0.594568 0.5
252 1 0.788358 0.68946 0.5
256 1 0.926862 0.658955 0.5
169 1 0.923334 0.906898 0.5
278 1 0.810384 0.735407 0.5
23 1 0.938574 0.847624 0.5
19 1 0.844629 0.693147 0.5
151 1 0.981971 0.893049 0.5
36 1 0.759255 1.00003 0.5
128 1 0.802775 0.603383 0.5
68 1 0.965301 0.981341 0.5
77 1 0.893713 0.589399 0.5
6 1 0.873965 0.917077 0.5
139 1 0.953326 0.507328 0.5
76 1 0.942297 0.558361 0.5
191 1 0.933148 0.760581 0.5
267 1 0.767292 0.650886 0.5
82 1 0.971494 0.695361 0.5
334 1 0.769371 0.752996 0.5
242 1 0.923344 0.804088 0.5
84 1 0.824766 0.551398 0.5
40 1 0.841512 0.986086 0.5
196 1 0.930641 0.711243 0.5
259 1 0.842444 0.801709 0.5
114 1 0.972244 0.739061 0.5
28 1 0.813788 0.951819 0.5
389 1 0.803117 0.782199 0.5
322 1 0.868185 0.650664 0.5
284 1 0.754982 0.915283 0.5
159 1 0.979411 0.624884 0.5
119 1 0.818163 0.652596 0.5
136 1 0.775647 0.834049 0.5
143 1 0.851543 0.754773 0.5
390 1 0.89083 0.77617 0.5
129 1 0.79949 0.883267 0.5
328 1 0.924318 0.958398 0.5
353 1 0.886204 0.825769 0.5
13 1 0.846027 0.856683 0.5
38 1 0.897649 0.869675 0.5
9 1 0.969557 0.801903 0.5
65 1 0.809856 0.503051 0.5
317 1 0.832226 0.911519 0.5
230 1 0.76291 0.514079 0.5
111 1 0.932741 0.613535 0.5
227 1 0.761266 0.595751 0.5
45 1 0.908057 0.514686 0.5
349 1 0.962356 0.934533 0.5
123 1 0.998031 0.513607 0.5
