ITEM: TIMESTEP
100000
ITEM: NUMBER OF ATOMS
400
ITEM: BOX BOUNDS pp pp pp
0.0000000000000000e+00 2.1081851067789195e+01
0.0000000000000000e+00 2.1081851067789195e+01
-5.2704627669472992e-01 5.2704627669472992e-01
ITEM: ATOMS id type xs ys zs
169 1 0.0446527 0.0671295 0.5
136 1 0.0418288 0.317655 0.5
384 1 0.121035 0.0929515 0.5
238 1 0.187608 0.121499 0.5
55 1 0.0749048 0.0998375 0.5
285 1 0.172854 0.211516 0.5
377 1 0.0471787 0.0201766 0.5
357 1 0.190213 0.447239 0.5
134 1 0.198449 0.172959 0.5
344 1 0.144553 0.144325 0.5
49 1 0.100172 0.148104 0.5
8 1 0.0907921 0.0318319 0.5
25 1 0.0692374 0.181066 0.5
296 1 0.0364078 0.24432 0.5
395 1 0.149073 0.023017 0.5
247 1 0.182917 0.0543679 0.5
212 1 0.233944 0.270103 0.5
231 1 0.00827938 0.100386 0.5
234 1 0.040709 0.131306 0.5
187 1 0.00254004 0.373957 0.5
16 1 0.243378 0.0370189 0.5
189 1 0.0253937 0.197973 0.5
222 1 0.118358 0.195142 0.5
175 1 0.223138 0.224291 0.5
225 1 0.19379 0.397922 0.5
353 1 0.0706916 0.277364 0.5
151 1 0.0790248 0.229373 0.5
141 1 0.0871773 0.3321 0.5
44 1 0.130342 0.243681 0.5
123 1 0.239845 0.13464 0.5
117 1 0.145572 0.288479 0.5
396 1 0.187481 0.309211 0.5
254 1 0.230153 0.485007 0.5
364 1 0.186275 0.259748 0.5
105 1 0.152718 0.362135 0.5
39 1 0.23329 0.322716 0.5
304 1 0.233274 0.427143 0.5
14 1 0.0498683 0.367382 0.5
138 1 0.0967436 0.43205 0.5
54 1 0.0127443 0.419764 0.5
99 1 0.0948638 0.382924 0.5
310 1 0.201296 0.353903 0.5
230 1 0.0872303 0.476431 0.5
164 1 0.13359 0.462032 0.5
355 1 0.143544 0.417763 0.5
374 1 0.243601 0.370641 0.5
318 1 0.047186 0.450154 0.5
305 1 0.220783 0.0863799 0.5
95 1 0.204459 0.00626327 0.5
223 1 0.178545 0.493631 0.5
47 1 0.0403309 0.496848 0.5
337 1 0.0116963 0.607612 0.5
66 1 0.238775 0.962089 0.5
286 1 0.168236 0.604594 0.5
350 1 0.134428 0.512523 0.5
345 1 0.0200637 0.546527 0.5
273 1 0.0150472 0.711048 0.5
386 1 0.0529293 0.578455 0.5
237 1 0.170558 0.541788 0.5
279 1 0.237678 0.851571 0.5
70 1 0.196981 0.641712 0.5
390 1 0.0544809 0.634318 0.5
127 1 0.0991213 0.615104 0.5
338 1 0.120549 0.574931 0.5
335 1 0.216345 0.736557 0.5
126 1 0.0476183 0.679654 0.5
52 1 0.224572 0.532668 0.5
12 1 0.201886 0.931382 0.5
156 1 0.0967149 0.669632 0.5
333 1 0.139106 0.648994 0.5
67 1 0.245205 0.671265 0.5
77 1 0.131848 0.698181 0.5
97 1 0.210324 0.585434 0.5
192 1 0.0145148 0.881425 0.5
360 1 0.0894663 0.727677 0.5
226 1 0.134641 0.810765 0.5
186 1 0.173471 0.781573 0.5
242 1 0.0854283 0.795513 0.5
288 1 0.0946117 0.848131 0.5
33 1 0.193959 0.882067 0.5
111 1 0.0144031 0.834822 0.5
297 1 0.178911 0.836827 0.5
370 1 0.161738 0.732164 0.5
205 1 0.0371941 0.793159 0.5
31 1 0.114626 0.988663 0.5
56 1 0.127245 0.764888 0.5
118 1 0.0837743 0.900973 0.5
276 1 0.157822 0.916644 0.5
124 1 0.230917 0.80514 0.5
361 1 0.197511 0.693568 0.5
179 1 0.166459 0.980708 0.5
239 1 0.142748 0.868061 0.5
399 1 0.0690055 0.960877 0.5
53 1 0.0312846 0.92928 0.5
348 1 0.0934193 0.535859 0.5
326 1 0.111398 0.939471 0.5
185 1 0.0453375 0.748417 0.5
200 1 0.356926 0.17594 0.5
159 1 0.333459 0.0794986 0.5
365 1 0.292613 0.106489 0.5
80 1 0.428771 0.0529433 0.5
188 1 0.39943 0.191665 0.5
385 1 0.280075 0.268044 0.5
22 1 0.383815 0.0688742 0.5
387 1 0.311062 0.164032 0.5
157 1 0.396227 0.0187184 0.5
69 1 0.341128 0.130809 0.5
229 1 0.414 0.290966 0.5
6 1 0.458241 0.148391 0.5
220 1 0.422318 0.113892 0.5
368 1 0.418156 0.236856 0.5
120 1 0.452822 0.203738 0.5
380 1 0.361562 0.226652 0.5
382 1 0.324443 0.305181 0.5
316 1 0.387087 0.422435 0.5
323 1 0.362497 0.277545 0.5
132 1 0.492742 0.230543 0.5
43 1 0.319098 0.240815 0.5
27 1 0.466664 0.0159905 0.5
102 1 0.475015 0.352709 0.5
349 1 0.36332 0.488562 0.5
58 1 0.374434 0.320876 0.5
252 1 0.490667 0.180521 0.5
112 1 0.259082 0.177832 0.5
161 1 0.289384 0.332666 0.5
325 1 0.421894 0.339912 0.5
236 1 0.325853 0.452942 0.5
107 1 0.331335 0.407158 0.5
363 1 0.340213 0.351121 0.5
45 1 0.492558 0.400015 0.5
142 1 0.294814 0.0349976 0.5
158 1 0.286887 0.475192 0.5
309 1 0.284075 0.420085 0.5
278 1 0.43588 0.390545 0.5
106 1 0.412908 0.458853 0.5
343 1 0.267454 0.223646 0.5
267 1 0.470724 0.102415 0.5
302 1 0.38773 0.375856 0.5
101 1 0.456381 0.49768 0.5
150 1 0.45965 0.431701 0.5
163 1 0.343433 0.0248251 0.5
233 1 0.295853 0.377028 0.5
375 1 0.454449 0.270144 0.5
347 1 0.485781 0.305989 0.5
290 1 0.492376 0.466795 0.5
94 1 0.496634 0.0507714 0.5
277 1 0.400918 0.512941 0.5
224 1 0.350008 0.56793 0.5
393 1 0.427737 0.603143 0.5
392 1 0.257508 0.567653 0.5
362 1 0.287341 0.940212 0.5
218 1 0.369454 0.664221 0.5
253 1 0.495707 0.820931 0.5
176 1 0.377633 0.972261 0.5
46 1 0.41899 0.652132 0.5
398 1 0.375425 0.609294 0.5
282 1 0.304963 0.603645 0.5
88 1 0.425019 0.97438 0.5
171 1 0.448256 0.923037 0.5
321 1 0.291017 0.675779 0.5
122 1 0.33889 0.704028 0.5
110 1 0.300935 0.55336 0.5
115 1 0.458276 0.695325 0.5
108 1 0.262808 0.623515 0.5
133 1 0.452694 0.7404 0.5
300 1 0.48892 0.596757 0.5
145 1 0.472635 0.641769 0.5
24 1 0.256801 0.763381 0.5
96 1 0.383115 0.827113 0.5
397 1 0.474725 0.965658 0.5
79 1 0.433076 0.785175 0.5
389 1 0.268982 0.516751 0.5
83 1 0.259663 0.716131 0.5
3 1 0.411095 0.700198 0.5
214 1 0.414369 0.878628 0.5
371 1 0.464883 0.547911 0.5
330 1 0.271016 0.995995 0.5
376 1 0.316843 0.744006 0.5
306 1 0.352724 0.775288 0.5
84 1 0.441792 0.828969 0.5
208 1 0.329171 0.643279 0.5
255 1 0.494112 0.909281 0.5
131 1 0.383045 0.738494 0.5
166 1 0.337893 0.816055 0.5
11 1 0.395629 0.920567 0.5
342 1 0.360741 0.882808 0.5
146 1 0.3436 0.931309 0.5
104 1 0.294683 0.796235 0.5
40 1 0.286748 0.847929 0.5
130 1 0.312243 0.889923 0.5
391 1 0.467513 0.866983 0.5
137 1 0.417906 0.556999 0.5
354 1 0.261003 0.896295 0.5
320 1 0.32888 0.977741 0.5
215 1 0.3222 0.510362 0.5
235 1 0.495004 0.724257 0.5
75 1 0.714055 0.391164 0.5
201 1 0.735359 0.480387 0.5
42 1 0.539146 0.265096 0.5
109 1 0.510184 0.00165249 0.5
10 1 0.729283 0.21003 0.5
339 1 0.630802 0.452259 0.5
289 1 0.686861 0.487293 0.5
271 1 0.515329 0.130673 0.5
241 1 0.693624 0.143145 0.5
243 1 0.705746 0.442348 0.5
182 1 0.649026 0.0243113 0.5
308 1 0.666845 0.422389 0.5
73 1 0.54688 0.0287915 0.5
170 1 0.584067 0.0553548 0.5
245 1 0.629364 0.0667485 0.5
394 1 0.654769 0.163666 0.5
41 1 0.531244 0.200965 0.5
373 1 0.529499 0.0893304 0.5
291 1 0.670579 0.0850079 0.5
199 1 0.692227 0.0347764 0.5
62 1 0.649485 0.249167 0.5
36 1 0.63511 0.119988 0.5
121 1 0.738196 0.103144 0.5
125 1 0.609803 0.157334 0.5
284 1 0.677555 0.207538 0.5
281 1 0.572955 0.110199 0.5
172 1 0.678507 0.289228 0.5
4 1 0.586756 0.209016 0.5
266 1 0.729318 0.305441 0.5
1 1 0.631568 0.204439 0.5
74 1 0.586493 0.258197 0.5
18 1 0.52453 0.434308 0.5
57 1 0.568678 0.301525 0.5
76 1 0.627683 0.290907 0.5
81 1 0.525698 0.328916 0.5
90 1 0.575747 0.408662 0.5
367 1 0.551761 0.476964 0.5
213 1 0.612863 0.336908 0.5
167 1 0.661082 0.331656 0.5
177 1 0.70642 0.343295 0.5
13 1 0.724738 0.260308 0.5
256 1 0.570171 0.353855 0.5
232 1 0.621323 0.407532 0.5
196 1 0.656087 0.37736 0.5
240 1 0.59569 0.493912 0.5
89 1 0.564357 0.160599 0.5
346 1 0.738333 0.0479003 0.5
312 1 0.530922 0.378026 0.5
154 1 0.748984 0.433306 0.5
272 1 0.64116 0.497329 0.5
260 1 0.573539 0.580546 0.5
174 1 0.724407 0.849513 0.5
378 1 0.745743 0.909183 0.5
299 1 0.505521 0.67745 0.5
265 1 0.698598 0.627049 0.5
100 1 0.619301 0.98628 0.5
9 1 0.617919 0.586224 0.5
173 1 0.596786 0.944104 0.5
162 1 0.708838 0.582094 0.5
388 1 0.723352 0.675378 0.5
307 1 0.527656 0.560108 0.5
262 1 0.727246 0.99183 0.5
191 1 0.653528 0.937983 0.5
331 1 0.582997 0.627156 0.5
315 1 0.670693 0.668997 0.5
258 1 0.538041 0.616197 0.5
5 1 0.547158 0.909379 0.5
193 1 0.643814 0.630078 0.5
119 1 0.693042 0.71157 0.5
298 1 0.549558 0.662037 0.5
251 1 0.6094 0.665103 0.5
114 1 0.732302 0.741182 0.5
311 1 0.675655 0.528901 0.5
351 1 0.5942 0.720118 0.5
303 1 0.518809 0.955975 0.5
29 1 0.591237 0.804225 0.5
38 1 0.645929 0.712143 0.5
317 1 0.698018 0.811683 0.5
336 1 0.544551 0.720154 0.5
294 1 0.565268 0.763865 0.5
152 1 0.685469 0.764423 0.5
257 1 0.67106 0.853304 0.5
140 1 0.541475 0.821582 0.5
216 1 0.513785 0.868215 0.5
352 1 0.610541 0.852855 0.5
26 1 0.662183 0.571232 0.5
135 1 0.64054 0.807476 0.5
358 1 0.611359 0.53558 0.5
165 1 0.628203 0.762885 0.5
319 1 0.649625 0.892549 0.5
203 1 0.728359 0.528111 0.5
324 1 0.560723 0.864079 0.5
202 1 0.506588 0.512373 0.5
147 1 0.598035 0.897268 0.5
211 1 0.67881 0.990984 0.5
204 1 0.701089 0.947763 0.5
244 1 0.698156 0.891461 0.5
228 1 0.572895 0.985875 0.5
15 1 0.51035 0.768697 0.5
334 1 0.743312 0.803028 0.5
71 1 0.55819 0.526646 0.5
98 1 0.904527 0.167081 0.5
190 1 0.767907 0.278784 0.5
341 1 0.977977 0.236428 0.5
217 1 0.946985 0.145401 0.5
381 1 0.845265 0.0647812 0.5
250 1 0.75484 0.157965 0.5
72 1 0.961871 0.102858 0.5
264 1 0.978869 0.0589387 0.5
269 1 0.872816 0.0253524 0.5
144 1 0.853345 0.113772 0.5
50 1 0.903971 0.0678032 0.5
160 1 0.904591 0.116489 0.5
197 1 0.759344 0.346415 0.5
181 1 0.858216 0.170614 0.5
183 1 0.820654 0.144766 0.5
292 1 0.936667 0.214621 0.5
91 1 0.786696 0.115244 0.5
322 1 0.800532 0.193343 0.5
113 1 0.780614 0.2345 0.5
249 1 0.886199 0.218286 0.5
328 1 0.952938 0.296546 0.5
59 1 0.956033 0.395328 0.5
21 1 0.821013 0.286526 0.5
313 1 0.875301 0.265871 0.5
195 1 0.781162 0.0681006 0.5
314 1 0.95671 0.445635 0.5
103 1 0.780219 0.493309 0.5
400 1 0.91909 0.0116599 0.5
86 1 0.976796 0.191954 0.5
93 1 0.920222 0.257097 0.5
207 1 0.936311 0.346293 0.5
2 1 0.835998 0.225434 0.5
34 1 0.855078 0.31725 0.5
37 1 0.991016 0.323606 0.5
259 1 0.804629 0.452192 0.5
65 1 0.803924 0.331427 0.5
64 1 0.900936 0.304635 0.5
149 1 0.785213 0.383313 0.5
209 1 0.89267 0.354239 0.5
178 1 0.83617 0.412361 0.5
143 1 0.89828 0.414281 0.5
7 1 0.838678 0.488535 0.5
128 1 0.839017 0.362334 0.5
379 1 0.867599 0.447589 0.5
180 1 0.911388 0.461815 0.5
63 1 0.996678 0.277537 0.5
28 1 0.997085 0.4652 0.5
61 1 0.997052 0.144939 0.5
116 1 0.942897 0.496032 0.5
129 1 0.815255 0.0326802 0.5
372 1 0.768392 0.0129034 0.5
369 1 0.994181 0.00058016 0.5
293 1 0.88548 0.930472 0.5
30 1 0.791281 0.922454 0.5
168 1 0.825249 0.775233 0.5
270 1 0.923533 0.539459 0.5
35 1 0.82686 0.625784 0.5
32 1 0.992639 0.953162 0.5
295 1 0.88009 0.575586 0.5
210 1 0.853838 0.536472 0.5
92 1 0.869935 0.643594 0.5
340 1 0.934274 0.585726 0.5
356 1 0.858565 0.697285 0.5
246 1 0.862761 0.748432 0.5
219 1 0.909981 0.695664 0.5
184 1 0.911062 0.745245 0.5
280 1 0.914745 0.628681 0.5
206 1 0.787184 0.544001 0.5
248 1 0.81955 0.578597 0.5
332 1 0.945643 0.665635 0.5
139 1 0.770765 0.702145 0.5
87 1 0.908753 0.970048 0.5
51 1 0.818661 0.728738 0.5
329 1 0.814148 0.975686 0.5
327 1 0.787578 0.800444 0.5
261 1 0.892292 0.787204 0.5
48 1 0.980944 0.800932 0.5
148 1 0.963238 0.620831 0.5
301 1 0.854607 0.817169 0.5
82 1 0.953869 0.767389 0.5
153 1 0.814985 0.672999 0.5
60 1 0.822699 0.850857 0.5
366 1 0.978304 0.564298 0.5
85 1 1.00085 0.659744 0.5
19 1 0.835734 0.91739 0.5
221 1 0.955056 0.71684 0.5
275 1 0.769258 0.869302 0.5
383 1 0.894289 0.847757 0.5
263 1 0.932239 0.812127 0.5
78 1 0.770658 0.644047 0.5
155 1 0.9644 0.858347 0.5
17 1 0.974229 0.906439 0.5
194 1 0.862998 0.879767 0.5
227 1 0.91234 0.8917 0.5
23 1 0.953675 0.982104 0.5
359 1 0.863088 0.978441 0.5
268 1 0.938849 0.93573 0.5
287 1 0.776417 0.596553 0.5
283 1 0.983093 0.518185 0.5
20 1 0.779971 0.75427 0.5
68 1 0.76034 0.956362 0.5
198 1 0.999762 0.760012 0.5
274 1 0.886124 0.504913 0.5
