ITEM: TIMESTEP
100000
ITEM: NUMBER OF ATOMS
400
ITEM: BOX BOUNDS pp pp pp
0.0000000000000000e+00 2.5819888974716111e+01
0.0000000000000000e+00 2.5819888974716111e+01
-6.4549722436790280e-01 6.4549722436790280e-01
ITEM: ATOMS id type xs ys zs
12 1 0.0890035 0.257652 0.5
229 1 0.0283795 0.415899 0.5
139 1 0.0995006 0.156616 0.5
86 1 0.00263989 0.286897 0.5
143 1 0.00391363 0.451031 0.5
291 1 0.16235 0.0764911 0.5
63 1 0.071969 0.496991 0.5
19 1 0.0450341 0.234462 0.5
225 1 0.171081 0.1675 0.5
38 1 0.118547 0.400381 0.5
377 1 0.203497 0.0129817 0.5
348 1 0.087752 0.220052 0.5
11 1 0.116341 0.0421746 0.5
154 1 0.143812 0.285919 0.5
155 1 0.0564015 0.129573 0.5
287 1 0.120396 0.446496 0.5
168 1 0.0802385 0.326271 0.5
141 1 0.10916 0.356973 0.5
224 1 0.0137477 0.192992 0.5
13 1 0.222115 0.463673 0.5
363 1 0.153014 0.122301 0.5
294 1 0.181224 0.322556 0.5
91 1 0.014443 0.358025 0.5
283 1 0.0495433 0.0575433 0.5
257 1 0.115538 0.193831 0.5
47 1 0.116613 0.116126 0.5
17 1 0.0419346 0.308084 0.5
247 1 0.249455 0.0380215 0.5
108 1 0.137659 0.322845 0.5
158 1 0.17982 0.271491 0.5
90 1 0.0386868 0.270878 0.5
99 1 0.171038 0.376077 0.5
183 1 0.21563 0.337893 0.5
323 1 0.205086 0.39674 0.5
169 1 0.0739411 0.414158 0.5
349 1 0.204087 0.051045 0.5
374 1 0.248648 0.108501 0.5
365 1 0.153335 0.409152 0.5
106 1 0.0730032 0.452295 0.5
82 1 0.209117 0.0888381 0.5
355 1 0.223735 0.240306 0.5
347 1 0.0558244 0.185372 0.5
221 1 0.0260411 0.0230125 0.5
203 1 0.203295 0.209632 0.5
153 1 0.0130505 0.108973 0.5
267 1 0.0272006 0.157742 0.5
397 1 0.0743152 0.0245959 0.5
333 1 0.175087 0.462075 0.5
226 1 0.223642 0.295381 0.5
302 1 0.111916 0.492855 0.5
200 1 0.134545 0.983604 0.5
249 1 0.124395 0.836816 0.5
328 1 0.018558 0.692561 0.5
304 1 0.11683 0.563617 0.5
130 1 0.039642 0.537699 0.5
148 1 0.0553477 0.91785 0.5
292 1 0.24244 0.886754 0.5
244 1 0.138797 0.530438 0.5
61 1 0.0785976 0.576488 0.5
211 1 0.210388 0.942868 0.5
8 1 0.093744 0.611119 0.5
25 1 0.0589886 0.966968 0.5
21 1 0.19762 0.703376 0.5
311 1 0.0927648 0.533083 0.5
193 1 0.161161 0.565018 0.5
199 1 0.209405 0.583329 0.5
265 1 0.0435106 0.725302 0.5
331 1 0.222578 0.67376 0.5
142 1 0.101274 0.869082 0.5
129 1 0.0108863 0.81159 0.5
329 1 0.0944034 0.723608 0.5
64 1 0.0627144 0.77636 0.5
371 1 0.154514 0.680601 0.5
359 1 0.14385 0.63612 0.5
340 1 0.0737134 0.650307 0.5
395 1 0.151228 0.866547 0.5
231 1 0.116564 0.760289 0.5
353 1 0.099028 0.802031 0.5
136 1 0.221984 0.620693 0.5
293 1 0.179415 0.968515 0.5
162 1 0.213239 0.803444 0.5
275 1 0.249498 0.73473 0.5
334 1 0.143778 0.904331 0.5
326 1 0.185646 0.900484 0.5
381 1 0.113535 0.691959 0.5
3 1 0.130131 0.940603 0.5
296 1 0.022606 0.948044 0.5
150 1 0.0074997 0.764763 0.5
262 1 0.0472853 0.827351 0.5
122 1 0.189872 0.530549 0.5
201 1 0.225938 0.76385 0.5
171 1 0.100553 0.968519 0.5
253 1 0.166218 0.816534 0.5
215 1 0.0509602 0.601667 0.5
227 1 0.0614708 0.863344 0.5
109 1 0.231131 0.989586 0.5
6 1 0.189423 0.651824 0.5
202 1 0.0140908 0.650542 0.5
250 1 0.00309994 0.588666 0.5
376 1 0.366605 0.187786 0.5
285 1 0.441073 0.281525 0.5
173 1 0.330765 0.0476196 0.5
284 1 0.287586 0.0348611 0.5
88 1 0.456775 0.414466 0.5
212 1 0.284399 0.312969 0.5
62 1 0.375772 0.141371 0.5
362 1 0.29206 0.424815 0.5
309 1 0.456461 0.477647 0.5
251 1 0.463421 0.00955288 0.5
175 1 0.295728 0.112341 0.5
367 1 0.364121 0.387842 0.5
389 1 0.340486 0.131614 0.5
81 1 0.271309 0.0782366 0.5
119 1 0.49205 0.0499489 0.5
343 1 0.387935 0.0754075 0.5
375 1 0.454136 0.193978 0.5
117 1 0.417192 0.179434 0.5
280 1 0.448406 0.0531148 0.5
126 1 0.473894 0.255877 0.5
277 1 0.31038 0.203457 0.5
56 1 0.450377 0.327754 0.5
260 1 0.426103 0.138414 0.5
208 1 0.289927 0.462526 0.5
124 1 0.270135 0.231401 0.5
264 1 0.429499 0.376234 0.5
104 1 0.488502 0.296577 0.5
182 1 0.423524 0.00724067 0.5
382 1 0.313516 0.335804 0.5
300 1 0.488308 0.364584 0.5
103 1 0.368323 0.342881 0.5
278 1 0.408314 0.043109 0.5
166 1 0.410703 0.467093 0.5
325 1 0.429946 0.227362 0.5
52 1 0.348335 0.227975 0.5
39 1 0.480013 0.100289 0.5
94 1 0.394483 0.317888 0.5
321 1 0.326564 0.295415 0.5
157 1 0.420919 0.094173 0.5
84 1 0.345863 0.423047 0.5
187 1 0.474289 0.145881 0.5
120 1 0.272089 0.277886 0.5
339 1 0.378051 0.00646639 0.5
361 1 0.322175 0.391128 0.5
4 1 0.383784 0.442174 0.5
184 1 0.274799 0.369416 0.5
378 1 0.281486 0.151687 0.5
123 1 0.496344 0.417649 0.5
102 1 0.25163 0.436846 0.5
134 1 0.252805 0.400613 0.5
237 1 0.460866 0.555564 0.5
350 1 0.255885 0.786303 0.5
9 1 0.461909 0.750945 0.5
30 1 0.404332 0.721545 0.5
92 1 0.295579 0.712716 0.5
220 1 0.32544 0.680947 0.5
322 1 0.300614 0.791385 0.5
181 1 0.282052 0.590571 0.5
95 1 0.487433 0.920954 0.5
121 1 0.437104 0.874793 0.5
43 1 0.315504 0.610673 0.5
238 1 0.398903 0.6577 0.5
79 1 0.311354 0.55576 0.5
185 1 0.495104 0.702048 0.5
399 1 0.302548 0.887289 0.5
290 1 0.472483 0.669826 0.5
207 1 0.406083 0.966733 0.5
356 1 0.361318 0.677993 0.5
327 1 0.436773 0.688596 0.5
26 1 0.375201 0.937602 0.5
105 1 0.387204 0.591727 0.5
392 1 0.363689 0.739493 0.5
7 1 0.434976 0.825306 0.5
384 1 0.340062 0.918979 0.5
29 1 0.353858 0.631142 0.5
54 1 0.399983 0.811298 0.5
274 1 0.356204 0.559979 0.5
390 1 0.378916 0.77508 0.5
159 1 0.260095 0.627062 0.5
305 1 0.338557 0.779898 0.5
256 1 0.459555 0.792127 0.5
332 1 0.253454 0.948026 0.5
297 1 0.404137 0.856463 0.5
337 1 0.378194 0.893951 0.5
75 1 0.310033 0.971485 0.5
174 1 0.283325 0.8433 0.5
93 1 0.421481 0.75897 0.5
281 1 0.415771 0.931543 0.5
1 1 0.418155 0.625095 0.5
344 1 0.351456 0.966731 0.5
295 1 0.471861 0.600767 0.5
373 1 0.400157 0.554304 0.5
5 1 0.451124 0.963227 0.5
246 1 0.43993 0.520666 0.5
230 1 0.355402 0.825051 0.5
205 1 0.269289 0.992857 0.5
219 1 0.266318 0.553044 0.5
217 1 0.299804 0.65042 0.5
266 1 0.352302 0.501454 0.5
125 1 0.399477 0.50822 0.5
66 1 0.277981 0.515677 0.5
40 1 0.489522 0.506391 0.5
320 1 0.492309 0.777381 0.5
177 1 0.480724 0.883941 0.5
385 1 0.520635 0.142363 0.5
110 1 0.684001 0.406905 0.5
258 1 0.544657 0.0040764 0.5
303 1 0.738171 0.00221454 0.5
387 1 0.551177 0.194281 0.5
15 1 0.581354 0.0522588 0.5
60 1 0.530313 0.0463389 0.5
380 1 0.594325 0.10283 0.5
190 1 0.523709 0.349091 0.5
195 1 0.544108 0.0928841 0.5
316 1 0.700556 0.30621 0.5
276 1 0.506063 0.00824074 0.5
44 1 0.742365 0.294951 0.5
360 1 0.559242 0.248582 0.5
372 1 0.666024 0.102499 0.5
160 1 0.625874 0.137007 0.5
53 1 0.672302 0.257641 0.5
27 1 0.600128 0.468927 0.5
243 1 0.656789 0.308772 0.5
336 1 0.740915 0.37716 0.5
191 1 0.666214 0.15217 0.5
301 1 0.671969 0.211739 0.5
263 1 0.61661 0.431487 0.5
128 1 0.712094 0.0976961 0.5
113 1 0.706034 0.0460227 0.5
151 1 0.618109 0.286798 0.5
14 1 0.660503 0.0442393 0.5
314 1 0.512171 0.255226 0.5
268 1 0.597235 0.237884 0.5
335 1 0.582473 0.417315 0.5
270 1 0.681213 0.349916 0.5
16 1 0.56033 0.157355 0.5
118 1 0.568643 0.364715 0.5
248 1 0.688326 0.489781 0.5
222 1 0.541071 0.410615 0.5
69 1 0.73511 0.458566 0.5
51 1 0.618576 0.383999 0.5
352 1 0.696886 -0.000405799 0.5
34 1 0.548123 0.481349 0.5
189 1 0.723639 0.21798 0.5
391 1 0.664435 0.44349 0.5
74 1 0.722818 0.258868 0.5
114 1 0.619255 0.190505 0.5
127 1 0.695526 0.184038 0.5
85 1 0.624227 0.0150117 0.5
107 1 0.699961 0.137084 0.5
379 1 0.640188 0.234775 0.5
273 1 0.513042 0.188026 0.5
210 1 0.635185 0.492211 0.5
192 1 0.501665 0.458799 0.5
351 1 0.746262 0.126302 0.5
65 1 0.649478 0.60674 0.5
386 1 0.603972 0.664111 0.5
310 1 0.544115 0.569208 0.5
232 1 0.62475 0.928249 0.5
165 1 0.563387 0.967349 0.5
393 1 0.631957 0.968204 0.5
259 1 0.584303 0.760007 0.5
319 1 0.710006 0.736811 0.5
198 1 0.569232 0.524544 0.5
100 1 0.729031 0.5648 0.5
49 1 0.530941 0.533474 0.5
89 1 0.73283 0.822492 0.5
132 1 0.708246 0.528465 0.5
24 1 0.739172 0.93251 0.5
78 1 0.587158 0.934373 0.5
172 1 0.647008 0.557453 0.5
315 1 0.510124 0.651058 0.5
97 1 0.540247 0.826838 0.5
37 1 0.536809 0.935562 0.5
156 1 0.616612 0.625319 0.5
32 1 0.708366 0.958865 0.5
206 1 0.612137 0.523839 0.5
234 1 0.543688 0.765999 0.5
204 1 0.554978 0.636516 0.5
163 1 0.636581 0.713627 0.5
146 1 0.56893 0.679011 0.5
245 1 0.647575 0.647303 0.5
298 1 0.684186 0.698487 0.5
194 1 0.733741 0.70819 0.5
272 1 0.651824 0.815341 0.5
396 1 0.590722 0.724546 0.5
80 1 0.732561 0.66749 0.5
152 1 0.606276 0.853355 0.5
236 1 0.50123 0.964719 0.5
214 1 0.630345 0.765984 0.5
68 1 0.695721 0.660065 0.5
98 1 0.536989 0.716907 0.5
242 1 0.68895 0.822807 0.5
45 1 0.669698 0.856382 0.5
28 1 0.583452 0.816069 0.5
50 1 0.580038 0.607749 0.5
76 1 0.744795 0.610819 0.5
111 1 0.520708 0.863494 0.5
71 1 0.638487 0.882632 0.5
140 1 0.680314 0.904776 0.5
241 1 0.716516 0.860073 0.5
308 1 0.678091 0.762714 0.5
87 1 0.738567 0.505148 0.5
35 1 0.513484 0.598647 0.5
144 1 0.508594 0.744297 0.5
161 1 0.590057 0.997755 0.5
366 1 0.893326 0.150275 0.5
324 1 0.921744 0.177595 0.5
398 1 0.880775 0.192301 0.5
73 1 0.908155 0.03695 0.5
400 1 0.771612 0.155056 0.5
23 1 0.939786 0.0660614 0.5
306 1 0.830512 0.124879 0.5
357 1 0.815457 0.0642784 0.5
33 1 0.877991 0.46713 0.5
342 1 0.778992 0.363435 0.5
180 1 0.76894 0.0334711 0.5
354 1 0.96849 0.372536 0.5
186 1 0.953725 0.312087 0.5
167 1 0.916029 0.317545 0.5
209 1 0.961944 0.0314636 0.5
288 1 0.756782 0.0701937 0.5
147 1 0.929348 0.268895 0.5
170 1 0.821488 0.0117924 0.5
233 1 0.96303 0.162394 0.5
240 1 0.772682 0.256029 0.5
145 1 0.869023 0.32236 0.5
22 1 0.785533 0.454327 0.5
235 1 0.834266 0.349148 0.5
307 1 0.965744 0.110446 0.5
269 1 0.953638 0.44344 0.5
188 1 0.863506 0.0594607 0.5
42 1 0.942764 0.400021 0.5
2 1 0.985304 0.216238 0.5
345 1 0.870535 0.254866 0.5
313 1 0.840765 0.4419 0.5
59 1 0.776027 0.321162 0.5
135 1 0.930461 0.232337 0.5
112 1 0.826448 0.172082 0.5
138 1 0.829239 0.398475 0.5
197 1 0.886496 0.379425 0.5
289 1 0.896407 0.426691 0.5
394 1 0.979481 0.409573 0.5
252 1 0.934116 0.360406 0.5
77 1 0.927915 0.131836 0.5
18 1 0.772054 0.415306 0.5
286 1 0.863699 0.108221 0.5
364 1 0.840847 0.28486 0.5
218 1 0.818048 0.471805 0.5
318 1 0.997177 0.0587994 0.5
312 1 0.922566 0.947983 0.5
41 1 0.952023 0.914948 0.5
388 1 0.789138 0.617589 0.5
67 1 0.89239 0.643795 0.5
368 1 0.926669 0.991651 0.5
46 1 0.802195 0.560672 0.5
178 1 0.984135 0.712701 0.5
164 1 0.764832 0.57745 0.5
48 1 0.946639 0.686593 0.5
10 1 0.831939 0.843818 0.5
330 1 0.83712 0.578099 0.5
83 1 0.905011 0.697082 0.5
137 1 0.786136 0.737836 0.5
116 1 0.818404 0.805302 0.5
72 1 0.852933 0.941466 0.5
228 1 0.897507 0.794694 0.5
358 1 0.951373 0.745973 0.5
239 1 0.887181 0.91807 0.5
101 1 0.938165 0.828165 0.5
55 1 0.809445 0.689204 0.5
346 1 0.775735 0.950768 0.5
216 1 0.936097 0.649849 0.5
131 1 0.858215 0.789004 0.5
271 1 0.952106 0.607557 0.5
58 1 0.904804 0.739043 0.5
223 1 0.755904 0.85522 0.5
20 1 0.821392 0.967946 0.5
299 1 0.980237 0.673082 0.5
341 1 0.782859 0.883165 0.5
176 1 0.987165 0.963999 0.5
31 1 0.824491 0.509531 0.5
255 1 0.848788 0.887548 0.5
383 1 0.915866 0.588259 0.5
179 1 0.807235 0.924739 0.5
282 1 0.865573 0.738974 0.5
279 1 0.819256 0.754074 0.5
149 1 0.917702 0.544021 0.5
196 1 0.957643 0.862622 0.5
261 1 0.928616 0.499968 0.5
369 1 0.774876 0.79858 0.5
317 1 0.791627 0.832148 0.5
115 1 1.00007 0.904802 0.5
57 1 0.773014 0.666071 0.5
133 1 0.975811 0.545758 0.5
96 1 0.7671 0.532257 0.5
70 1 0.845931 0.677415 0.5
370 1 0.878941 0.533722 0.5
254 1 0.780325 0.994347 0.5
36 1 0.9682 0.502182 0.5
338 1 0.87677 0.976904 0.5
213 1 0.754163 0.768911 0.5
