LAMMPS (15 Sep 2022)
OMP_NUM_THREADS environment is not set. Defaulting to 1 thread. (src/comm.cpp:98)
  using 1 OpenMP thread(s) per MPI task
Lattice spacing in x,y,z = 1.0259784 1.0259784 1.0259784
Created orthogonal box = (0 0 -0.51298918) to (20.519567 20.519567 0.51298918)
  4 by 2 by 1 MPI processor grid
Created 400 atoms
  using lattice units in orthogonal box = (0 0 -0.51298918) to (20.519567 20.519567 0.51298918)
  create_atoms CPU = 0.000 seconds
Generated 0 of 0 mixed pair_coeff terms from geometric mixing rule
Neighbor list info ...
  update: every = 1 steps, delay = 0 steps, check = yes
  max neighbors/atom: 2000, page size: 100000
  master list distance cutoff = 1.3
  ghost atom cutoff = 1.3
  binsize = 0.65, bins = 32 32 2
  1 neighbor lists, perpetual/occasional/extra = 1 0 0
  (1) pair lj/cut, perpetual
      attributes: half, newton on
      pair build: half/bin/atomonly/newton
      stencil: half/bin/2d
      bin: standard
Setting up Verlet run ...
  Unit style    : lj
  Current step  : 0
  Time step     : 0.01
Per MPI rank memory allocation (min/avg/max) = 3.048 | 3.048 | 3.048 Mbytes
   Step          Temp          E_pair         E_mol          TotEng         Press     
         0   3              0              0              2.9925         2.842875     
       500   2.8809398      1.5370036      0              4.4107411      28.000226    
      1000   3.2629847      1.3239464      0              4.5787737      25.372192    
      1500   2.9657545      1.2555282      0              4.2138683      24.992393    
      2000   3.1719353      1.1802872      0              4.3442927      23.731301    
      2500   2.8969691      1.0956469      0              3.9853736      22.690118    
      3000   3.0600235      1.2738439      0              4.3262173      24.925657    
      3500   3.1585552      1.3585375      0              4.5091964      25.585746    
      4000   3.2581851      1.4853164      0              4.735356       27.380298    
      4500   3.0461105      1.2837361      0              4.3222313      24.801626    
      5000   3.1768277      1.2782198      0              4.4471055      24.918618    
      5500   2.9700811      1.2739157      0              4.2365716      24.13557     
      6000   3.0526751      1.1544092      0              4.1994526      23.178591    
      6500   2.7425389      1.4397525      0              4.175435       26.492742    
      7000   2.7892539      1.2643176      0              4.0465983      24.65791     
      7500   2.9923063      1.1792744      0              4.1640999      23.060923    
      8000   2.9803052      1.1451538      0              4.1180083      23.023528    
      8500   2.9298262      1.128512       0              4.0510136      23.196721    
      9000   2.9415754      1.2387987      0              4.1730202      24.231473    
      9500   2.7443697      1.3902457      0              4.1277545      25.807288    
     10000   3.0538586      1.2494304      0              4.2956544      24.975404    
     10500   3.0064617      1.2244463      0              4.2233919      24.546326    
     11000   2.9408474      1.2740751      0              4.2075704      24.329632    
     11500   2.8127476      1.190462       0              3.9961777      23.868427    
     12000   2.8109847      1.3588522      0              4.1628095      25.344792    
     12500   3.0633595      1.3300113      0              4.3857124      25.273408    
     13000   3.2620898      1.1542164      0              4.4081509      23.635471    
     13500   3.2576677      1.434783       0              4.6843065      26.803128    
     14000   3.0503271      1.1829011      0              4.2256024      23.759787    
     14500   3.1160774      1.1158408      0              4.224128       22.883343    
     15000   2.8095275      1.3288175      0              4.1313212      24.978349    
     15500   3.0172143      1.3031448      0              4.312816       24.222659    
     16000   3.0331536      1.183411       0              4.2089817      23.919065    
     16500   3.01595        1.2764832      0              4.2848933      24.644629    
     17000   3.2647888      1.2042296      0              4.4608564      24.85662     
     17500   3.0854995      1.0060309      0              4.0838166      21.278193    
     18000   2.8519058      1.2743305      0              4.1191065      24.439718    
     18500   2.8834088      1.1841296      0              4.0603298      24.2228      
     19000   2.7453133      1.2021723      0              3.9406224      23.582617    
     19500   2.9705405      1.1218687      0              4.0849828      23.612604    
     20000   3.0521127      1.3142085      0              4.358691       25.025324    
     20500   2.8702985      1.2182281      0              4.0813508      23.64741     
     21000   2.8843199      1.2016742      0              4.0787833      23.790304    
     21500   3.0296547      1.1722615      0              4.1943421      23.214075    
     22000   3.05958        1.098574       0              4.1505051      23.109729    
     22500   3.1924995      1.2125864      0              4.3971047      24.080161    
     23000   3.4410186      1.3915969      0              4.8240129      27.184686    
     23500   3.0984146      1.2554787      0              4.3461473      24.838755    
     24000   2.8974921      1.3569348      0              4.2471832      26.203917    
     24500   2.9123365      1.2460077      0              4.1510634      24.344014    
     25000   2.8831648      1.255217       0              4.1311739      24.732273    
     25500   2.7367856      1.2788859      0              4.0088295      24.770939    
     26000   2.916027       1.2957082      0              4.2044451      24.767233    
     26500   3.1124126      1.032529       0              4.1371606      21.440444    
     27000   2.8267156      1.1927549      0              4.0124037      23.390047    
     27500   2.7685841      1.106724       0              3.8683866      22.418315    
     28000   3.0346575      1.2325279      0              4.2595987      24.319069    
     28500   2.9527494      1.2572298      0              4.2025974      24.519624    
     29000   2.8976163      1.24236        0              4.1327323      24.361833    
     29500   2.8734156      1.1639828      0              4.0302149      23.421327    
     30000   2.9108369      1.3121895      0              4.2157493      25.52008     
     30500   2.9209116      1.251267       0              4.1648763      24.433167    
     31000   2.9495581      1.1598581      0              4.1020423      23.054353    
     31500   2.8997959      1.1216123      0              4.0141587      22.948942    
     32000   2.8845701      1.2271768      0              4.1045355      24.260862    
     32500   2.9712981      1.177678       0              4.1415478      23.998225    
     33000   3.0671254      1.180848       0              4.2403056      23.791835    
     33500   3.040063       1.2496838      0              4.2821466      24.090274    
     34000   2.9630543      1.2259447      0              4.1815914      23.883085    
     34500   3.044214       1.0877294      0              4.1243328      22.410955    
     35000   2.9643908      1.3229755      0              4.2799553      25.266742    
     35500   3.2305096      1.3184389      0              4.5408722      25.543314    
     36000   3.1757769      1.2713233      0              4.4391608      24.693037    
     36500   3.0424273      1.2030563      0              4.2378776      23.663184    
     37000   3.012565       1.2712349      0              4.2762685      24.615056    
     37500   3.0802643      1.1441706      0              4.2167342      23.070165    
     38000   3.2204289      1.1272571      0              4.3396348      23.438511    
     38500   3.0348672      1.3170389      0              4.344319       25.523925    
     39000   3.1400768      1.2445624      0              4.3767891      24.289755    
     39500   2.870377       1.339553       0              4.202754       25.260864    
     40000   2.9663029      1.3030793      0              4.2619664      24.839689    
     40500   2.9844901      1.13252        0              4.1095489      23.275727    
     41000   2.8575502      1.2300929      0              4.0804993      24.062465    
     41500   2.8593653      1.1434601      0              3.995677       23.069959    
     42000   2.6171891      1.1017758      0              3.7124219      22.383829    
     42500   3.164807       1.2127549      0              4.3696499      25.073897    
     43000   3.0213962      1.4029545      0              4.4167972      26.672614    
     43500   3.0992273      1.1126922      0              4.2041714      23.344855    
     44000   3.1359238      1.1302701      0              4.2583541      23.163321    
     44500   3.0100834      1.3021396      0              4.3046978      25.335721    
     45000   3.255898       1.2609247      0              4.508683       24.594883    
     45500   3.4368729      1.3969195      0              4.8252002      26.835432    
     46000   2.9295247      1.268162       0              4.1903629      24.514667    
     46500   2.90283        1.271519       0              4.167092       24.956631    
     47000   2.971292       1.1136062      0              4.07747        23.278527    
     47500   2.8934705      1.3181692      0              4.204406       25.083468    
     48000   2.8873621      1.2882505      0              4.1683942      25.705806    
     48500   3.0239131      1.2302987      0              4.2466521      24.115807    
     49000   3.1021567      1.4305717      0              4.524973       26.637455    
     49500   3.1918649      1.1653146      0              4.3491998      23.827577    
     50000   2.8992037      1.4778525      0              4.3698082      27.399216    
Loop time of 0.91406 on 8 procs for 50000 steps with 400 atoms

Performance: 47261657.086 tau/day, 54700.992 timesteps/s, 21.880 Matom-step/s
99.3% CPU use with 8 MPI tasks x 1 OpenMP threads

MPI task timing breakdown:
Section |  min time  |  avg time  |  max time  |%varavg| %total
---------------------------------------------------------------
Pair    | 0.07652    | 0.077594   | 0.081227   |   0.5 |  8.49
Neigh   | 0.10592    | 0.107      | 0.10996    |   0.4 | 11.71
Comm    | 0.47874    | 0.48697    | 0.49651    |   0.9 | 53.27
Output  | 0.0012905  | 0.0016815  | 0.0043767  |   2.5 |  0.18
Modify  | 0.12371    | 0.13724    | 0.14832    |   2.6 | 15.01
Other   |            | 0.1036     |            |       | 11.33

Nlocal:             50 ave          54 max          46 min
Histogram: 1 0 2 1 0 1 1 0 0 2
Nghost:          43.25 ave          49 max          39 min
Histogram: 1 2 0 0 1 1 1 1 0 1
Neighs:            125 ave         139 max         112 min
Histogram: 1 0 2 1 0 2 0 0 1 1

Total # of neighbors = 1000
Ave neighs/atom = 2.5
Neighbor list builds = 16892
Dangerous builds = 0
Generated 0 of 0 mixed pair_coeff terms from geometric mixing rule
Setting up Verlet run ...
  Unit style    : lj
  Current step  : 50000
  Time step     : 0.01
Per MPI rank memory allocation (min/avg/max) = 3.072 | 3.072 | 3.072 Mbytes
   Step          Temp          E_pair         E_mol          TotEng         Press     
     50000   2.8992037      1.4778525      0              4.3698082      27.399216    
     50500   3.1564511      1.1665549      0              4.3151148      23.570684    
     51000   2.909141       1.3174672      0              4.2193353      24.705096    
     51500   3.0351139      1.2525058      0              4.2800319      24.805492    
     52000   3.0313395      1.3965857      0              4.4203468      26.755895    
     52500   2.8846067      1.2250106      0              4.1024058      24.269577    
     53000   3.1794059      1.1991836      0              4.3706411      23.999655    
     53500   3.2562885      1.1386817      0              4.3868295      23.284131    
     54000   3.0857379      1.1762581      0              4.2542816      23.616959    
     54500   2.8275194      1.3277509      0              4.1482015      24.946657    
     55000   2.8286524      1.4004492      0              4.22203        26.703313    
     55500   3.0248594      1.0644671      0              4.0817643      22.630215    
     56000   3.0296415      1.1382381      0              4.1603055      23.360886    
     56500   2.8053677      1.2292728      0              4.0276271      23.621718    
     57000   2.9755562      1.2635369      0              4.2316542      24.903754    
     57500   2.7803557      1.3554545      0              4.1288592      25.072853    
     58000   2.8922768      1.3010308      0              4.1860769      24.929844    
     58500   2.858618       1.2269505      0              4.0784219      24.126039    
     59000   2.9116905      1.0616888      0              3.9661         22.022614    
     59500   2.9105326      1.2701665      0              4.1734228      24.651648    
     60000   2.9651384      1.1062583      0              4.0639839      22.506152    
     60500   3.0036997      1.0779812      0              4.0741717      22.693748    
     61000   2.7741341      1.0987018      0              3.8659006      22.998438    
     61500   2.7089075      1.1422352      0              3.8443704      22.120418    
     62000   2.8520997      1.1250709      0              3.9700403      23.239317    
     62500   2.5444833      1.0795777      0              3.6176998      21.877044    
     63000   2.510414       1.1017904      0              3.6059284      22.488029    
     63500   2.5336171      1.0459927      0              3.5732758      20.914231    
     64000   2.3537966      1.2479351      0              3.5958472      24.248109    
     64500   2.4931924      1.1239518      0              3.6109112      22.83485     
     65000   2.5938699      0.98295896     0              3.5703442      20.58696     
     65500   2.2617956      0.95865703     0              3.2147982      20.150509    
     66000   2.2798977      1.0588432      0              3.3330412      20.902225    
     66500   2.6102648      0.91445888     0              3.518198       19.761646    
     67000   2.4447585      1.1306858      0              3.5693324      22.9178      
     67500   2.6701909      0.89077242     0              3.5542879      20.04214     
     68000   2.5104397      1.0718439      0              3.5760075      22.352971    
     68500   2.4747388      1.1429701      0              3.611522       22.303784    
     69000   2.6872559      1.0504003      0              3.7309381      21.399308    
     69500   2.317199       1.054876       0              3.366282       20.90752     
     70000   2.4027301      0.94104957     0              3.3377729      20.082999    
     70500   2.2758859      0.93051302     0              3.2007092      20.240831    
     71000   2.3447307      0.99129026     0              3.3301591      20.835935    
     71500   2.4574059      0.86488209     0              3.3161445      18.95384     
     72000   2.3622794      0.97228921     0              3.3286629      20.604301    
     72500   2.3235603      0.95079568     0              3.2685471      19.805628    
     73000   2.2275577      1.0013228      0              3.2233116      20.415437    
     73500   2.196382       0.92727303     0              3.1181641      19.692463    
     74000   2.3579002      0.82728775     0              3.1792932      18.721533    
     74500   2.3165835      1.0029925      0              3.3137845      20.873204    
     75000   2.4460521      0.94675302     0              3.38669        19.980151    
     75500   2.3536937      1.1458789      0              3.4936883      23.276872    
     76000   2.2446463      0.94272493     0              3.1817596      20.221356    
     76500   2.3716751      0.88770915     0              3.2534551      19.203072    
     77000   2.1543124      0.82438758     0              2.9733142      17.984145    
     77500   2.2056329      0.83144291     0              3.0315617      17.72879     
     78000   2.2175719      0.85936618     0              3.0713941      18.502127    
     78500   2.213183       0.90781161     0              3.1154617      19.758168    
     79000   2.1024497      0.96605511     0              3.0632487      20.314249    
     79500   2.2469339      0.94869921     0              3.1900158      20.226845    
     80000   2.0641559      0.88830907     0              2.9473045      18.853768    
     80500   2.0581124      0.85706591     0              2.910033       18.587847    
     81000   2.2452113      0.72013759     0              2.9597359      16.461922    
     81500   2.2381005      0.84942167     0              3.0819269      18.653404    
     82000   2.0157039      0.95088567     0              2.9615503      19.452464    
     82500   2.056669       0.82344815     0              2.8749755      18.320244    
     83000   2.0758098      0.73227706     0              2.8028974      17.050877    
     83500   1.9737562      0.80824532     0              2.7770672      17.911729    
     84000   1.9224014      0.74527811     0              2.6628735      17.157653    
     84500   1.9626211      0.83032291     0              2.7880374      18.032152    
     85000   2.0002723      0.85312866     0              2.8484003      18.55122     
     85500   2.0358675      0.8938891      0              2.9246669      19.495379    
     86000   1.8914764      0.87603936     0              2.7627871      18.448644    
     86500   1.8596822      0.75706199     0              2.612095       16.893049    
     87000   1.9157532      0.70459683     0              2.6155606      16.448073    
     87500   1.857642       0.75005386     0              2.6030518      16.823939    
     88000   1.8585616      0.70197729     0              2.5558925      15.997501    
     88500   1.7594353      0.65784995     0              2.4128866      15.743905    
     89000   1.7900728      0.67970436     0              2.4653019      16.258947    
     89500   1.7452639      0.74749164     0              2.4883924      16.966105    
     90000   1.7836144      0.62449022     0              2.4036456      15.088947    
     90500   1.6470877      0.69488122     0              2.3378512      16.036608    
     91000   1.854947       0.73697644     0              2.5872861      16.469461    
     91500   1.8871673      0.78598352     0              2.6684329      17.93992     
     92000   1.8850692      0.64525        0              2.5256066      15.678362    
     92500   1.8022843      0.74398949     0              2.541768       16.689327    
     93000   1.8000696      0.72243978     0              2.5180093      16.295415    
     93500   1.9583038      0.70364053     0              2.6570486      16.679344    
     94000   1.8319005      0.63163863     0              2.4589593      14.957733    
     94500   1.7874814      0.65703385     0              2.4400466      15.665019    
     95000   1.7416772      0.66785164     0              2.4051747      15.707997    
     95500   1.5517709      0.55143745     0              2.0993289      13.967923    
     96000   1.5549061      0.60054927     0              2.1515681      14.337781    
     96500   1.5928215      0.61659294     0              2.2054324      15.08527     
     97000   1.723817       0.55572353     0              2.275231       14.308401    
     97500   1.5510736      0.65933574     0              2.2065316      14.983273    
     98000   1.5880628      0.62606245     0              2.2101551      15.240031    
     98500   1.5891187      0.59959031     0              2.1847362      14.256086    
     99000   1.4811585      0.55072996     0              2.0281855      13.881767    
     99500   1.4272743      0.57780879     0              2.0015149      13.804494    
    100000   1.466342       0.59817187     0              2.060848       14.097796    
    100500   1.5077858      0.60126782     0              2.1052841      14.756205    
    101000   1.5380094      0.58936687     0              2.1235312      14.702314    
    101500   1.5857507      0.53192081     0              2.1137071      13.704569    
    102000   1.4917032      0.56337857     0              2.0513525      14.02273     
    102500   1.4990733      0.56781462     0              2.0631402      13.730366    
    103000   1.4457066      0.577991       0              2.0200833      14.218353    
    103500   1.5362923      0.51527413     0              2.0477257      13.072968    
    104000   1.3906425      0.57237047     0              1.9595364      14.289739    
    104500   1.386383       0.49656436     0              1.8794814      12.426621    
    105000   1.3634148      0.51937385     0              1.8793801      13.027656    
    105500   1.3421208      0.46467117     0              1.8034367      11.896119    
    106000   1.3558335      0.50182462     0              1.8542685      13.083094    
    106500   1.3717381      0.4997531      0              1.8680619      12.999963    
    107000   1.3870481      0.52593151     0              1.909512       13.248802    
    107500   1.3929396      0.43927164     0              1.8287289      11.969879    
    108000   1.2960324      0.44526463     0              1.738057       11.364315    
    108500   1.3172018      0.44476371     0              1.7586725      12.155629    
    109000   1.420684       0.36349585     0              1.7806282      10.704176    
    109500   1.2499679      0.51184965     0              1.7586926      12.973715    
    110000   1.2459682      0.47068292     0              1.7135362      12.077605    
    110500   1.2099429      0.46372877     0              1.6706468      12.314073    
    111000   1.2088193      0.38485948     0              1.5906567      10.670735    
    111500   1.1588465      0.49022434     0              1.6461738      12.258603    
    112000   1.1968346      0.5262872      0              1.7201297      12.72793     
    112500   1.1957607      0.44534401     0              1.6381153      11.730962    
    113000   1.1574126      0.45696004     0              1.6114791      11.588364    
    113500   1.1352389      0.43312891     0              1.5655298      11.255517    
    114000   1.1538924      0.4025317      0              1.5535394      10.870568    
    114500   1.0208436      0.39122924     0              1.4095207      10.832222    
    115000   1.1535838      0.32817554     0              1.4788753      9.551351     
    115500   1.1261205      0.38753511     0              1.5108403      10.508108    
    116000   1.1654518      0.38847935     0              1.5510175      10.593855    
    116500   1.1523255      0.35966416     0              1.5091089      9.8681596    
    117000   1.076951       0.38807391     0              1.4623325      10.742423    
    117500   1.045448       0.38663314     0              1.4294675      10.849579    
    118000   1.0417355      0.36028027     0              1.3994114      10.133338    
    118500   1.0604066      0.4134648      0              1.4712204      11.417363    
    119000   1.0679744      0.362621       0              1.4279254      10.048478    
    119500   1.0550079      0.34306635     0              1.3954367      9.5041948    
    120000   1.0010041      0.33870505     0              1.3372067      9.7530178    
    120500   0.98833769     0.33630674     0              1.3221736      9.5519143    
    121000   0.979015       0.30362972     0              1.2801972      8.9015463    
    121500   0.93678121     0.25489641     0              1.1893357      8.1712091    
    122000   0.824729       0.31521573     0              1.1378829      8.9264285    
    122500   0.85206869     0.31832358     0              1.1682621      8.8918807    
    123000   0.90730708     0.29521844     0              1.2002572      8.9660176    
    123500   0.91919234     0.30084181     0              1.2177362      9.1686537    
    124000   0.87825433     0.27462806     0              1.1506868      8.337936     
    124500   0.85701985     0.25069405     0              1.1055714      8.0999192    
    125000   0.77315291     0.29660013     0              1.0678202      8.8256655    
    125500   0.77968362     0.25973246     0              1.0374669      8.0820902    
    126000   0.83685736     0.21041851     0              1.0451837      6.9365663    
    126500   0.75690205     0.21347877     0              0.96848856     6.9192802    
    127000   0.73697477     0.25446469     0              0.98959702     7.9267848    
    127500   0.77020645     0.19090852     0              0.95918945     6.6829981    
    128000   0.72091484     0.23436976     0              0.95348232     7.2072741    
    128500   0.73533598     0.23216855     0              0.96566619     7.2483168    
    129000   0.72708804     0.19787991     0              0.92315023     6.9362369    
    129500   0.67567704     0.23876725     0              0.9127551      7.5046967    
    130000   0.68137011     0.21409559     0              0.89376228     7.2080677    
    130500   0.68619911     0.18995668     0              0.8744403      6.5713314    
    131000   0.64917018     0.16710598     0              0.81465323     6.0303339    
    131500   0.62839385     0.18004239     0              0.80686525     6.1883462    
    132000   0.60556678     0.18136231     0              0.78541518     6.144877     
    132500   0.59297505     0.17156043     0              0.76305304     5.954096     
    133000   0.57912052     0.1639333      0              0.74160602     6.0677857    
    133500   0.57052439     0.1610975      0              0.73019558     5.7023756    
    134000   0.57076827     0.1750961      0              0.74443745     6.0789487    
    134500   0.54860835     0.15778019     0              0.70501702     5.6124772    
    135000   0.54497916     0.12591269     0              0.6695294      4.9603058    
    135500   0.49212371     0.13626572     0              0.62715912     4.9932773    
    136000   0.49741767     0.15260196     0              0.64877609     5.3612433    
    136500   0.51664537     0.12978043     0              0.64513419     5.1457818    
    137000   0.51188477     0.14318433     0              0.65378939     5.2653438    
    137500   0.48167332     0.14531929     0              0.62578843     5.3012263    
    138000   0.44575585     0.12930135     0              0.57394281     4.8029176    
    138500   0.42659174     0.11995295     0              0.54547821     4.5753813    
    139000   0.41292268     0.10112333     0              0.5130137      4.1323845    
    139500   0.41802289     0.09294531     0              0.50992314     4.2299893    
    140000   0.41373647     0.08860855     0              0.50131068     3.7168672    
    140500   0.40307914     0.095603116    0              0.49767456     3.833478     
    141000   0.38833083     0.089386676    0              0.47674668     3.7648152    
    141500   0.36891461     0.06815135     0              0.43614367     3.292202     
    142000   0.33082743     0.06113628     0              0.39113665     2.8839589    
    142500   0.29646539     0.053848126    0              0.34957235     2.6619341    
    143000   0.28314073     0.061163005    0              0.34359588     2.7606216    
    143500   0.26813796     0.065420166    0              0.33288778     2.8752974    
    144000   0.27072558     0.049630985    0              0.31967976     2.6016115    
    144500   0.24976172     0.042775137    0              0.29191246     2.2521326    
    145000   0.2494566      0.034621835    0              0.28345479     2.0058402    
    145500   0.23160011     0.039008097    0              0.27002921     2.0429965    
    146000   0.20681726     0.037923153    0              0.24422337     2.1822894    
    146500   0.200491       0.034628738    0              0.23461851     2.0818117    
    147000   0.19632714     0.030834107    0              0.22667042     1.6736092    
    147500   0.18356143     0.026504737    0              0.20960727     1.6340814    
    148000   0.16748562     0.024643012    0              0.19170992     1.6273009    
    148500   0.13860669     0.026599615    0              0.16485979     1.6283716    
    149000   0.12391848     0.015770766    0              0.13937945     1.1780862    
    149500   0.11458752     0.014287828    0              0.12858888     1.1461996    
    150000   0.10007322     0.0086772306   0              0.10850027     0.84713464   
Loop time of 1.68582 on 8 procs for 100000 steps with 400 atoms

Performance: 51250988.546 tau/day, 59318.274 timesteps/s, 23.727 Matom-step/s
99.3% CPU use with 8 MPI tasks x 1 OpenMP threads

MPI task timing breakdown:
Section |  min time  |  avg time  |  max time  |%varavg| %total
---------------------------------------------------------------
Pair    | 0.13407    | 0.13639    | 0.14246    |   0.7 |  8.09
Neigh   | 0.14552    | 0.14693    | 0.15124    |   0.5 |  8.72
Comm    | 0.90043    | 0.91984    | 0.94166    |   1.4 | 54.56
Output  | 0.016948   | 0.01708    | 0.017823   |   0.2 |  1.01
Modify  | 0.23737    | 0.27076    | 0.29386    |   4.0 | 16.06
Other   |            | 0.1948     |            |       | 11.56

Nlocal:             50 ave          51 max          47 min
Histogram: 1 0 0 0 0 2 0 0 0 5
Nghost:          44.75 ave          49 max          43 min
Histogram: 3 2 0 0 0 2 0 0 0 1
Neighs:        139.875 ave         147 max         131 min
Histogram: 2 0 0 1 0 1 0 0 3 1

Total # of neighbors = 1119
Ave neighs/atom = 2.7975
Neighbor list builds = 24053
Dangerous builds = 0
Total wall time: 0:00:02
