LAMMPS (15 Sep 2022)
OMP_NUM_THREADS environment is not set. Defaulting to 1 thread. (src/comm.cpp:98)
  using 1 OpenMP thread(s) per MPI task
Lattice spacing in x,y,z = 0.95346259 0.95346259 0.95346259
Created orthogonal box = (0 0 -0.47673129) to (19.069252 19.069252 0.47673129)
  4 by 2 by 1 MPI processor grid
Created 400 atoms
  using lattice units in orthogonal box = (0 0 -0.47673129) to (19.069252 19.069252 0.47673129)
  create_atoms CPU = 0.000 seconds
Generated 0 of 0 mixed pair_coeff terms from geometric mixing rule
Neighbor list info ...
  update: every = 1 steps, delay = 0 steps, check = yes
  max neighbors/atom: 2000, page size: 100000
  master list distance cutoff = 1.3
  ghost atom cutoff = 1.3
  binsize = 0.65, bins = 30 30 2
  1 neighbor lists, perpetual/occasional/extra = 1 0 0
  (1) pair lj/cut, perpetual
      attributes: half, newton on
      pair build: half/bin/atomonly/newton
      stencil: half/bin/2d
      bin: standard
Setting up Verlet run ...
  Unit style    : lj
  Current step  : 0
  Time step     : 0.01
Per MPI rank memory allocation (min/avg/max) = 3.048 | 3.048 | 3.048 Mbytes
   Step          Temp          E_pair         E_mol          TotEng         Press     
         0   3              2.19122        0              5.18372        61.445802    
       500   2.934304       2.1471683      0              5.0741365      45.400584    
      1000   3.3711246      1.9784603      0              5.341157       43.890719    
      1500   3.1451117      1.9539461      0              5.091195       43.185498    
      2000   3.1291778      2.2433053      0              5.3646602      46.968361    
      2500   2.8031179      1.985885       0              4.7819952      43.753542    
      3000   3.0137207      2.0860766      0              5.092263       44.736963    
      3500   3.0706295      2.0254867      0              5.0884397      43.741936    
      4000   2.7701975      1.9652349      0              4.7285069      42.873561    
      4500   3.0103473      2.0562991      0              5.0591206      44.677137    
      5000   3.0531006      1.9496694      0              4.9951373      43.518998    
      5500   2.9479235      2.0592665      0              4.9998202      44.229879    
      6000   3.0779976      1.8268683      0              4.897171       41.144039    
      6500   2.8535247      2.1625786      0              5.0089695      45.419464    
      7000   2.8763182      2.0950479      0              4.9641753      44.245416    
      7500   2.7196103      2.0878641      0              4.8006754      43.756377    
      8000   3.0515666      2.2025811      0              5.2465188      46.827758    
      8500   2.7449513      1.8807585      0              4.6188474      41.720535    
      9000   3.1373499      1.8483589      0              4.9778654      42.245758    
      9500   2.8604742      2.036361       0              4.889684       43.891746    
     10000   2.9365658      2.1445717      0              5.0737961      45.502449    
     10500   2.8863384      1.8476487      0              4.7267713      40.768165    
     11000   2.9562765      2.0757193      0              5.0246051      43.459987    
     11500   3.0662202      1.9607312      0              5.0192858      42.830717    
     12000   3.0385647      2.0139392      0              5.0449075      44.033763    
     12500   3.0429091      1.9423539      0              4.9776557      42.633162    
     13000   3.3037298      2.031734       0              5.3272045      44.661357    
     13500   2.8459353      2.1336118      0              4.9724323      44.798688    
     14000   3.0094247      2.1199395      0              5.1218407      44.947073    
     14500   3.0372948      2.093443       0              5.1231445      44.640602    
     15000   3.0123601      2.336314       0              5.3411432      47.809051    
     15500   2.9399655      2.0182644      0              4.95088        43.366847    
     16000   2.9918566      1.9154019      0              4.8997789      41.508843    
     16500   3.25621        1.9446517      0              5.1927213      42.530007    
     17000   3.0649265      2.3967323      0              5.4539965      48.201429    
     17500   3.0189442      1.9995353      0              5.0109321      43.361533    
     18000   3.1411735      2.1210142      0              5.2543348      45.179832    
     18500   2.8698715      1.9404813      0              4.8031781      42.491775    
     19000   2.9834813      2.1026289      0              5.0786515      43.94921     
     19500   2.9702046      1.9077945      0              4.8705735      42.363168    
     20000   3.1554786      1.9909787      0              5.1385686      44.132239    
     20500   3.0927734      2.3222832      0              5.4073247      47.907261    
     21000   2.8668804      2.084525       0              4.9442382      44.888175    
     21500   3.0428122      2.0985173      0              5.1337225      45.62863     
     22000   2.7535958      1.905026       0              4.6517378      41.848863    
     22500   2.9928509      1.8423968      0              4.8277656      40.678162    
     23000   3.0235465      2.0301653      0              5.046153       42.937282    
     23500   3.4504303      2.1510513      0              5.5928555      46.128884    
     24000   3.2011644      2.053777       0              5.2469385      44.970828    
     24500   3.1114189      1.9809923      0              5.0846327      43.207432    
     25000   3.0689698      2.0424527      0              5.1037501      43.800406    
     25500   2.9694196      1.9259315      0              4.8879276      42.182085    
     26000   3.0109094      2.0037732      0              5.0071553      44.263145    
     26500   3.0223146      1.9561336      0              4.9708924      43.142468    
     27000   3.1608787      2.142496       0              5.2954725      44.93815     
     27500   3.1130839      2.0977499      0              5.2030512      44.288366    
     28000   2.9865746      1.964689       0              4.9437972      42.776269    
     28500   3.064371       2.2383238      0              5.2950339      45.998717    
     29000   2.9943738      2.1103902      0              5.097278       45.064197    
     29500   2.9310328      2.27416        0              5.1978653      47.212539    
     30000   3.0889581      2.0495313      0              5.130767       44.121836    
     30500   3.0077368      2.03839        0              5.0386074      44.201193    
     31000   2.8772676      2.0597336      0              4.929808       43.914472    
     31500   3.0179491      2.0794194      0              5.0898235      44.140317    
     32000   3.3091065      2.251246       0              5.5520797      46.300285    
     32500   3.0257998      2.1043098      0              5.1225451      44.683075    
     33000   3.196303       2.2860018      0              5.474314       48.933097    
     33500   2.8509157      2.0844932      0              4.9282816      44.254265    
     34000   2.9140904      2.0290473      0              4.9358526      43.286883    
     34500   2.7853729      2.0555649      0              4.8339744      43.641052    
     35000   2.8730054      2.1902004      0              5.0560232      45.586231    
     35500   2.9284995      2.0148133      0              4.9359915      43.458041    
     36000   3.1935104      1.8577705      0              5.0432972      41.498826    
     36500   3.26175        2.2270926      0              5.4806882      46.608787    
     37000   2.932212       1.9660568      0              4.8909383      43.008311    
     37500   2.9660894      2.0489732      0              5.0076474      44.124052    
     38000   2.9550095      2.2137371      0              5.161359       46.391082    
     38500   3.3303671      2.09638        0              5.4184212      44.851177    
     39000   3.0273368      2.0668456      0              5.0866141      43.851429    
     39500   3.2617646      2.0865515      0              5.3401617      45.02468     
     40000   2.8784873      1.9882373      0              4.8595283      43.164292    
     40500   2.9676534      2.0376038      0              4.9978381      43.290124    
     41000   2.9816732      1.842344       0              4.816563       41.777052    
     41500   2.9030162      2.0955055      0              4.9912642      44.749862    
     42000   3.0729957      2.0927487      0              5.1580619      44.719604    
     42500   3.4323453      2.2821843      0              5.7059487      47.887791    
     43000   3.0685061      1.8772117      0              4.9380465      41.957203    
     43500   2.9849882      2.0873478      0              5.0648736      44.691348    
     44000   3.119426       2.0822219      0              5.1938493      44.976976    
     44500   2.8998375      2.1733068      0              5.0658947      45.511557    
     45000   2.9743903      2.0069687      0              4.9739231      44.102546    
     45500   3.0009716      1.875697       0              4.8691662      42.111708    
     46000   3.2899794      1.9367234      0              5.2184778      42.491951    
     46500   3.0413567      2.3284947      0              5.362248       47.396811    
     47000   2.9305547      1.9918709      0              4.9150992      42.998567    
     47500   3.2865799      1.988539       0              5.2669024      43.900489    
     48000   2.9028391      2.081312       0              4.976894       44.470033    
     48500   3.2177232      2.0729143      0              5.2825932      44.973702    
     49000   2.9912141      1.7814209      0              4.765157       40.023088    
     49500   3.0681146      2.0274177      0              5.087862       44.332331    
     50000   2.8080075      2.2423285      0              5.043316       46.484721    
Loop time of 0.92202 on 8 procs for 50000 steps with 400 atoms

Performance: 46853656.472 tau/day, 54228.769 timesteps/s, 21.692 Matom-step/s
99.3% CPU use with 8 MPI tasks x 1 OpenMP threads

MPI task timing breakdown:
Section |  min time  |  avg time  |  max time  |%varavg| %total
---------------------------------------------------------------
Pair    | 0.093152   | 0.098471   | 0.10654    |   1.1 | 10.68
Neigh   | 0.085338   | 0.086591   | 0.087945   |   0.3 |  9.39
Comm    | 0.49443    | 0.49938    | 0.50563    |   0.6 | 54.16
Output  | 0.0013288  | 0.0016261  | 0.003624   |   1.9 |  0.18
Modify  | 0.12151    | 0.13496    | 0.14674    |   2.8 | 14.64
Other   |            | 0.101      |            |       | 10.95

Nlocal:             50 ave          53 max          47 min
Histogram: 1 0 0 2 0 3 0 0 1 1
Nghost:         49.375 ave          53 max          48 min
Histogram: 5 0 0 0 0 0 2 0 0 1
Neighs:        148.125 ave         157 max         140 min
Histogram: 1 0 1 3 0 1 0 0 0 2

Total # of neighbors = 1185
Ave neighs/atom = 2.9625
Neighbor list builds = 16851
Dangerous builds = 0
Generated 0 of 0 mixed pair_coeff terms from geometric mixing rule
Setting up Verlet run ...
  Unit style    : lj
  Current step  : 50000
  Time step     : 0.01
Per MPI rank memory allocation (min/avg/max) = 3.072 | 3.072 | 3.072 Mbytes
   Step          Temp          E_pair         E_mol          TotEng         Press     
     50000   2.8080075      2.2423285      0              5.043316       46.484721    
     50500   3.0740222      2.0560216      0              5.1223587      44.432396    
     51000   2.7921201      2.1333601      0              4.9184999      43.777553    
     51500   3.01198        2.2237268      0              5.2281769      46.801797    
     52000   2.9647029      1.8854958      0              4.842787       41.695998    
     52500   3.0392015      2.0014586      0              5.0330622      43.311192    
     53000   2.847439       2.0486578      0              4.8889781      44.225976    
     53500   2.6793842      2.1200572      0              4.7927429      44.211116    
     54000   2.9549864      2.1366734      0              5.0842723      45.569318    
     54500   3.0917351      1.9154165      0              4.9994223      41.054985    
     55000   2.884846       1.9093036      0              4.7869375      40.973354    
     55500   2.9522799      2.0150088      0              4.959908       43.71389     
     56000   2.7944393      1.7804244      0              4.5678776      40.455583    
     56500   2.8859053      1.9556761      0              4.8343666      43.20741     
     57000   2.743793       1.8770948      0              4.6140282      41.391176    
     57500   2.7553934      1.8602363      0              4.6087413      42.026354    
     58000   2.7588316      1.7494598      0              4.5013943      40.322642    
     58500   2.7174844      1.8553784      0              4.5660691      40.174159    
     59000   2.8077537      1.9254093      0              4.7261436      42.418335    
     59500   2.6054211      1.7820724      0              4.38098        39.598184    
     60000   2.7225707      1.8671435      0              4.5829078      41.046828    
     60500   2.9147896      1.9756331      0              4.8831357      43.874758    
     61000   2.5089783      1.7825047      0              4.2852105      39.826138    
     61500   2.7269601      1.6622279      0              4.3823706      38.431045    
     62000   2.6331207      1.7724364      0              4.3989744      39.526829    
     62500   2.7903903      1.9307513      0              4.7141656      42.205684    
     63000   2.8220944      1.64658        0              4.4616191      38.465665    
     63500   2.6476594      1.7776746      0              4.4187148      39.857454    
     64000   2.9183495      1.6588598      0              4.5699134      38.223956    
     64500   2.5897362      1.7534773      0              4.3367391      39.097537    
     65000   2.5838521      1.794368       0              4.3717605      40.560787    
     65500   2.7496849      1.7873038      0              4.5301145      39.971985    
     66000   2.480161       1.68327        0              4.1572306      38.163954    
     66500   2.406405       1.7538548      0              4.1542438      38.607026    
     67000   2.3565293      1.82675        0              4.177388       40.428026    
     67500   2.5862851      1.6636794      0              4.2434989      38.655281    
     68000   2.5570176      1.7713334      0              4.3219584      39.381139    
     68500   2.4253784      1.7314304      0              4.1507454      39.237217    
     69000   2.3239975      1.7493583      0              4.0675459      38.214583    
     69500   2.4839439      1.6019153      0              4.0796494      36.654411    
     70000   2.3555605      1.6450873      0              3.9947588      37.758464    
     70500   2.3962698      1.7046949      0              4.094974       39.267322    
     71000   2.5553076      1.6986481      0              4.2475675      38.713569    
     71500   2.4447805      1.6778158      0              4.1164843      37.794931    
     72000   2.2952076      1.7227562      0              4.0122258      38.328978    
     72500   2.3948203      1.5286655      0              3.9174987      36.01238     
     73000   2.3344474      1.4061447      0              3.734756       33.514533    
     73500   2.1317085      1.7408771      0              3.8672563      38.682308    
     74000   2.3971125      1.5759843      0              3.967104       36.302019    
     74500   2.5323476      1.5413999      0              4.0674166      35.656978    
     75000   2.5001978      1.5086422      0              4.0025896      35.854604    
     75500   2.2196042      1.4709338      0              3.6849889      35.001512    
     76000   2.1219129      1.5183272      0              3.6349353      36.210147    
     76500   2.0726735      1.4613319      0              3.5288237      34.168965    
     77000   2.1757889      1.5712851      0              3.7416345      36.71268     
     77500   2.1259804      1.4709059      0              3.5915714      35.323548    
     78000   2.2810424      1.4252425      0              3.7005823      34.890986    
     78500   2.0695931      1.6359513      0              3.7003705      38.049178    
     79000   2.2535192      1.6197162      0              3.8676016      37.138322    
     79500   2.189174       1.4250093      0              3.6087103      34.73968     
     80000   2.2109135      1.3352591      0              3.5406452      33.106967    
     80500   1.9865906      1.4954345      0              3.4770586      34.547579    
     81000   2.0234427      1.4037883      0              3.4221725      33.84274     
     81500   2.0824193      1.3235821      0              3.4007954      32.687273    
     82000   1.9700597      1.3782411      0              3.3433756      33.2523      
     82500   2.000019       1.2844628      0              3.2794817      31.614039    
     83000   1.9129009      1.2902799      0              3.1983986      31.444779    
     83500   1.9210666      1.3829836      0              3.2992476      33.628818    
     84000   2.0692987      1.2792534      0              3.3433789      32.20092     
     84500   1.9951337      1.3736545      0              3.3638003      33.474847    
     85000   2.024503       1.3119979      0              3.3314397      32.354853    
     85500   2.0566685      1.17845        0              3.2299768      30.399624    
     86000   1.8725174      1.3388226      0              3.2066587      32.529398    
     86500   1.9409266      1.2680897      0              3.204164       31.628806    
     87000   1.8030284      1.3248324      0              3.1233533      32.158329    
     87500   2.1996072      1.3062113      0              3.5003194      32.977935    
     88000   1.8978579      1.4557676      0              3.3488808      34.556839    
     88500   2.0146183      1.262354       0              3.2719357      31.349786    
     89000   1.7756484      1.47797        0              3.2491792      34.700613    
     89500   1.8462055      1.2786035      0              3.1201935      32.197111    
     90000   1.8475928      1.2272518      0              3.0702256      31.155214    
     90500   1.6329013      1.2002145      0              2.8290335      30.504309    
     91000   1.7859123      1.1883623      0              2.9698098      30.439324    
     91500   1.8183526      1.228794       0              3.0426007      30.975064    
     92000   1.7951318      1.2781295      0              3.0687735      31.297898    
     92500   1.820948       1.2134371      0              3.0298327      30.469739    
     93000   1.7772852      1.1297592      0              2.9026011      29.794176    
     93500   1.76391        1.1374318      0              2.896932       29.429523    
     94000   1.8532814      1.1397571      0              2.9884053      30.103       
     94500   1.8101551      1.0891359      0              2.8947657      28.418005    
     95000   1.7798959      1.1006764      0              2.8761226      29.187453    
     95500   1.7023912      1.078798       0              2.7769332      28.294871    
     96000   1.5486569      1.1246978      0              2.669483       29.534033    
     96500   1.7430372      0.9909138      0              2.7295934      27.085393    
     97000   1.6887019      1.1329611      0              2.8174413      29.328881    
     97500   1.6864551      1.2224258      0              2.9046648      31.014133    
     98000   1.6927382      1.192367       0              2.8808734      29.553474    
     98500   1.6182718      1.1245033      0              2.7387294      28.938008    
     99000   1.6985513      0.98756885     0              2.6818738      27.79583     
     99500   1.6042919      1.0829672      0              2.6832484      28.404775    
    100000   1.4981551      1.0952422      0              2.5896519      28.88214     
    100500   1.5731715      0.98819875     0              2.5574373      27.161639    
    101000   1.5203229      0.9676647      0              2.4841868      26.389595    
    101500   1.4442521      1.0359352      0              2.4765766      26.837069    
    102000   1.4422424      0.98652988     0              2.4251667      26.808938    
    102500   1.4852637      0.91090903     0              2.3924596      25.254785    
    103000   1.5035586      0.90412257     0              2.4039223      25.148635    
    103500   1.4595544      0.93646882     0              2.3923743      25.033868    
    104000   1.4306676      0.9337536      0              2.3608445      25.690655    
    104500   1.3661756      0.94105588     0              2.303816       26.101176    
    105000   1.4112566      0.88537785     0              2.2931063      25.047814    
    105500   1.4457957      0.90129233     0              2.3434736      25.119826    
    106000   1.397596       0.90000999     0              2.294112       24.925589    
    106500   1.3458638      0.86596141     0              2.2084605      24.538393    
    107000   1.2969032      0.778668       0              2.0723289      22.815354    
    107500   1.284179       0.8468681      0              2.1278366      24.261705    
    108000   1.3566544      0.88722966     0              2.2404924      24.535724    
    108500   1.4021526      0.89051863     0              2.2891659      24.838175    
    109000   1.3446549      0.96984347     0              2.3111367      26.372033    
    109500   1.2418387      0.8058107      0              2.0445448      23.609633    
    110000   1.2001354      0.8588131      0              2.0559482      23.515448    
    110500   1.1952979      0.78294965     0              1.9752593      23.230205    
    111000   1.2013914      0.84223375     0              2.0406217      23.770661    
    111500   1.2312642      0.85503264     0              2.0832187      23.530228    
    112000   1.4126275      0.88074639     0              2.2898423      24.986458    
    112500   1.1796209      0.74122131     0              1.9178932      21.939269    
    113000   1.2222558      0.67487445     0              1.8940746      21.052395    
    113500   1.1708986      0.70043851     0              1.8684099      21.212529    
    114000   1.0732929      0.68899332     0              1.759603       20.900801    
    114500   1.0163425      0.73988488     0              1.7536865      22.197678    
    115000   0.99954887     0.77630601     0              1.773356       22.691666    
    115500   1.1282935      0.71662061     0              1.8420934      21.533857    
    116000   1.0883766      0.73807014     0              1.8237258      22.394796    
    116500   1.0533116      0.75209108     0              1.8027694      22.239745    
    117000   1.1880439      0.63969908     0              1.8247729      20.060729    
    117500   1.0106047      0.71735546     0              1.7254336      21.25622     
    118000   1.042072       0.67005873     0              1.7095256      20.749753    
    118500   1.0081649      0.68284388     0              1.6884884      20.873511    
    119000   0.97901575     0.6613194      0              1.6378876      20.823917    
    119500   1.0076163      0.63719688     0              1.6422942      19.45879     
    120000   1.0186029      0.58408941     0              1.6001458      18.507475    
    120500   0.9815824      0.59052782     0              1.5696563      18.98548     
    121000   0.92633983     0.61048153     0              1.5345055      19.797123    
    121500   0.92194482     0.54410351     0              1.4637435      17.9843      
    122000   0.86562657     0.65282968     0              1.5162922      19.895414    
    122500   0.95223296     0.55977401     0              1.5096264      18.21828     
    123000   0.8680858      0.60587348     0              1.4717891      19.041848    
    123500   0.81036422     0.63517022     0              1.4435085      19.350322    
    124000   0.86542332     0.5304453      0              1.3937051      17.385527    
    124500   0.84227857     0.507673       0              1.3478459      17.184368    
    125000   0.77852084     0.50959842     0              1.286173       17.349847    
    125500   0.74639654     0.47358733     0              1.2181179      16.41161     
    126000   0.82170645     0.50033602     0              1.3199882      16.98384     
    126500   0.81434966     0.50217451     0              1.3144883      16.681317    
    127000   0.6846601      0.48918127     0              1.1721297      16.706458    
    127500   0.72683822     0.46349546     0              1.1885166      16.397618    
    128000   0.73245139     0.46394924     0              1.1945695      16.102693    
    128500   0.76878127     0.47252729     0              1.2393866      16.395568    
    129000   0.73693953     0.48783167     0              1.2229288      16.355922    
    129500   0.7155717      0.44194324     0              1.155726       15.64753     
    130000   0.67575181     0.43122122     0              1.1052837      15.604388    
    130500   0.65914394     0.41022276     0              1.0677188      14.623512    
    131000   0.61612604     0.41424184     0              1.0288276      14.793105    
    131500   0.65390572     0.36004373     0              1.0123147      13.603266    
    132000   0.64457793     0.35555263     0              0.99851912     14.047888    
    132500   0.60379771     0.35417347     0              0.95646169     13.565774    
    133000   0.60574019     0.33053279     0              0.93475862     13.154765    
    133500   0.53715353     0.38153343     0              0.91734407     14.128178    
    134000   0.53160543     0.35127714     0              0.88155356     13.461667    
    134500   0.52619055     0.34300176     0              0.86787684     13.252279    
    135000   0.52180121     0.32588981     0              0.84638652     12.64655     
    135500   0.49713607     0.30968323     0              0.80557646     12.539999    
    136000   0.50060534     0.29812454     0              0.79747837     11.73412     
    136500   0.45590593     0.29569114     0              0.75045731     12.263123    
    137000   0.47251184     0.30088887     0              0.77221942     12.339048    
    137500   0.47332343     0.29843531     0              0.77057543     12.293816    
    138000   0.43478639     0.27607888     0              0.70977831     11.68612     
    138500   0.46266        0.22626704     0              0.68777039     10.064592    
    139000   0.40222754     0.2511018      0              0.65232377     10.86517     
    139500   0.38200926     0.26687971     0              0.64793395     11.35093     
    140000   0.37716471     0.25453467     0              0.63075647     10.960162    
    140500   0.35870616     0.2438486      0              0.60165799     10.814134    
    141000   0.35895615     0.21195529     0              0.57001405     10.082463    
    141500   0.33340846     0.21857649     0              0.55115143     9.7926775    
    142000   0.34897627     0.19486436     0              0.54296819     9.0245384    
    142500   0.30607334     0.2110829      0              0.51639105     9.9959203    
    143000   0.33107811     0.18728995     0              0.51754037     8.9244614    
    143500   0.29359862     0.17523155     0              0.46809618     8.6038698    
    144000   0.29209117     0.18315252     0              0.47451346     8.5431147    
    144500   0.23666384     0.15662673     0              0.39269891     8.1529735    
    145000   0.25481359     0.14123902     0              0.39541558     7.7306877    
    145500   0.2254916      0.12671114     0              0.35163901     7.1774494    
    146000   0.21140236     0.13447948     0              0.34535333     7.2323997    
    146500   0.1802775      0.12529966     0              0.30512646     6.9705029    
    147000   0.18195742     0.11394292     0              0.29544545     6.7104399    
    147500   0.16342429     0.091309824    0              0.25432555     5.7003141    
    148000   0.16102043     0.080686292    0              0.24130417     5.3340744    
    148500   0.14260777     0.073240453    0              0.2154917      5.1994417    
    149000   0.13022376     0.066733146    0              0.19663135     4.7304976    
    149500   0.11048374     0.052776705    0              0.16298424     4.1443249    
    150000   0.097638062    0.055156565    0              0.15255053     4.2476899    
Loop time of 1.69341 on 8 procs for 100000 steps with 400 atoms

Performance: 51021190.087 tau/day, 59052.303 timesteps/s, 23.621 Matom-step/s
99.5% CPU use with 8 MPI tasks x 1 OpenMP threads

MPI task timing breakdown:
Section |  min time  |  avg time  |  max time  |%varavg| %total
---------------------------------------------------------------
Pair    | 0.18007    | 0.18627    | 0.19884    |   1.3 | 11.00
Neigh   | 0.11154    | 0.11302    | 0.1159     |   0.4 |  6.67
Comm    | 0.91274    | 0.92366    | 0.93628    |   0.9 | 54.54
Output  | 0.01493    | 0.015047   | 0.015742   |   0.2 |  0.89
Modify  | 0.24174    | 0.26595    | 0.28843    |   3.9 | 15.70
Other   |            | 0.1895     |            |       | 11.19

Nlocal:             50 ave          51 max          49 min
Histogram: 3 0 0 0 0 2 0 0 0 3
Nghost:         47.875 ave          51 max          47 min
Histogram: 5 0 1 0 0 1 0 0 0 1
Neighs:          147.5 ave         153 max         142 min
Histogram: 1 0 1 1 2 0 0 2 0 1

Total # of neighbors = 1180
Ave neighs/atom = 2.95
Neighbor list builds = 23245
Dangerous builds = 0
Total wall time: 0:00:02
