ITEM: TIMESTEP
100000
ITEM: NUMBER OF ATOMS
2048
ITEM: BOX BOUNDS pp pp pp
0.0000000000000000e+00 1.2699208415745595e+01
0.0000000000000000e+00 1.2699208415745595e+01
0.0000000000000000e+00 1.2699208415745595e+01
ITEM: ATOMS id type xs ys zs
1090 1 0.404568 0.000397333 0.381227
570 1 0.197582 0.356155 0.20749
1676 1 0.269045 0.336955 0.203384
686 1 0.0432525 0.247537 0.037173
1595 1 0.486091 0.047532 0.185385
71 1 0.118919 0.257745 0.109315
97 1 0.368763 0.479929 0.208598
1657 1 0.073078 0.32922 0.0828675
791 1 0.406486 0.334028 0.108402
1215 1 0.448408 0.037042 0.0369337
186 1 0.418714 0.470532 0.0179022
654 1 0.11828 0.120131 0.0105692
330 1 0.203721 0.204235 0.262701
219 1 0.346338 0.464632 0.00252688
497 1 0.164988 0.0762143 0.204048
166 1 0.115979 0.231176 0.251244
459 1 0.473911 0.357149 0.141754
909 1 0.119559 0.366447 0.186066
1504 1 0.39536 0.40922 0.149842
1000 1 0.304646 0.176359 0.474509
808 1 0.0761732 0.288796 0.209556
1529 1 0.0646999 0.17064 0.222085
15 1 0.0718689 0.424293 0.0891147
1405 1 0.0786268 0.125307 0.300688
231 1 0.0776974 0.336883 0.407581
2002 1 0.387408 0.396808 0.465965
813 1 0.318918 0.306523 0.334283
1402 1 0.125148 0.072292 0.0808313
1558 1 0.230855 0.38781 0.0409378
917 1 0.225089 0.49968 0.34034
937 1 0.240462 0.0441536 0.159907
913 1 0.0604428 0.0816124 0.0426414
963 1 0.140935 0.438068 0.344079
1007 1 0.472557 0.203147 0.24574
331 1 0.398191 0.153248 0.133867
2047 1 0.168674 0.13462 0.0706828
380 1 0.484672 0.142465 0.359422
1517 1 0.47175 0.267814 0.306545
843 1 0.289039 0.16253 0.0612471
1496 1 0.211056 0.190317 0.0458283
1978 1 0.320958 0.168853 0.127218
1110 1 0.240575 0.476948 0.457388
1659 1 0.135765 0.197331 0.174498
1493 1 0.2337 0.327686 0.27178
1622 1 0.139298 0.372383 0.0653833
267 1 0.252646 0.341822 0.103843
554 1 0.412391 0.261393 0.242971
165 1 0.237682 0.101649 0.0259271
273 1 0.472363 0.337407 0.328136
1381 1 0.0543544 0.468749 0.14837
1767 1 0.0760209 0.382285 0.00994135
1181 1 0.00386372 0.161394 0.28848
1684 1 0.465586 0.100043 0.1339
1066 1 0.161873 0.0593129 0.43524
1620 1 0.491538 0.291537 0.21587
1314 1 0.208516 0.384868 0.331202
1988 1 0.0381895 0.0265186 0.500208
690 1 0.0192199 0.26444 0.425306
439 1 0.274172 0.0260823 0.0417495
283 1 0.0542883 0.285338 0.318768
1667 1 0.111515 0.112973 0.146745
1393 1 0.189087 0.0927039 0.132787
832 1 0.494614 0.301451 0.478919
803 1 0.342503 0.0482055 0.16988
1399 1 0.320381 0.361548 0.136402
329 1 0.445706 0.48385 0.237309
647 1 0.359379 0.224795 0.0720451
1700 1 0.37637 0.182849 0.271781
1554 1 0.178806 0.25852 0.212528
116 1 0.368986 0.146236 0.0580086
1168 1 0.3166 0.48588 0.465502
1811 1 0.438599 0.238692 0.371306
1417 1 0.0431561 0.413568 0.275297
1130 1 0.281532 0.229156 0.0986547
1038 1 0.420382 0.260446 0.123867
206 1 0.000141727 0.4867 0.395452
1358 1 0.155548 0.101562 0.370432
583 1 0.335893 0.19158 0.00952119
407 1 0.149579 0.390697 0.279902
1121 1 0.000745113 0.397704 0.128159
114 1 0.433834 0.0713833 0.443207
141 1 0.0978668 0.304707 0.0134688
1590 1 0.184749 0.325419 0.1341
1498 1 0.297268 0.439512 0.0686353
34 1 0.320219 0.439084 0.140969
945 1 0.307691 0.367237 0.0541976
1236 1 0.148474 0.148828 0.245714
85 1 0.178772 0.110914 0.303073
187 1 0.300099 0.193032 0.306758
1268 1 0.253751 0.0207566 0.266137
1982 1 0.141835 0.173489 0.318771
1308 1 0.0725481 0.0111104 0.0718547
1369 1 0.182328 0.21498 0.110122
228 1 0.235332 0.203192 0.352197
1942 1 0.331736 0.269802 0.254979
345 1 0.420914 0.153908 0.213047
1877 1 0.437238 0.196407 0.0768412
684 1 0.45748 0.411424 0.19851
1807 1 0.265836 0.208336 0.176326
848 1 0.161883 0.299973 0.27862
341 1 0.203244 0.164651 0.197763
350 1 0.245777 0.27626 0.162566
939 1 0.0794057 0.43142 0.211008
1937 1 0.255963 0.253745 0.236821
1986 1 0.248088 0.399315 0.155124
1142 1 0.31297 0.363194 0.277409
958 1 0.236003 0.0829202 0.223484
473 1 0.485186 0.36178 0.251809
1328 1 0.388849 0.404907 0.0727191
122 1 0.159082 0.425708 0.212106
236 1 0.206059 0.26731 0.0642814
653 1 0.425258 0.320067 0.187333
1763 1 0.0238768 0.292779 0.154735
1040 1 0.275355 0.147085 0.238191
1731 1 0.0635501 0.0954008 0.371189
1598 1 0.224506 0.156163 0.12107
172 1 0.0754899 0.19217 0.0827588
984 1 0.0792786 0.0753446 0.221762
667 1 0.369177 0.103437 0.257075
1512 1 0.103933 0.110535 0.481234
1161 1 0.0229925 0.192779 0.485438
1152 1 0.206496 0.146384 0.409229
1908 1 0.258195 0.131697 0.348746
1482 1 0.118745 0.0508392 0.285759
412 1 0.385488 0.253412 0.310994
778 1 0.22562 0.401966 0.257011
1663 1 0.256165 0.264889 0.312852
710 1 0.0107365 0.154655 0.0563152
193 1 0.0743812 0.338842 0.268437
1149 1 0.0623349 0.203806 0.321309
1882 1 0.179789 0.472848 0.268121
1771 1 0.293707 0.458159 0.398257
138 1 0.00690599 0.36014 0.0143449
1570 1 0.271794 0.446787 0.298104
1940 1 0.126835 0.0301933 0.0113896
1984 1 0.21464 0.203103 0.474668
1208 1 0.353136 0.402872 0.338179
10 1 0.153867 0.364195 0.398116
1228 1 0.00793492 0.174285 0.367401
640 1 0.290077 0.0890626 0.104971
1175 1 0.12257 0.307502 0.347723
1375 1 0.0446501 0.217149 0.167241
699 1 0.0797054 0.470689 0.492744
1774 1 0.0825558 0.23729 0.38866
157 1 0.448114 0.113084 0.0433256
1796 1 0.0462554 0.0541928 0.297708
295 1 0.277506 0.21475 0.413252
1813 1 0.207475 0.0467224 0.333345
585 1 0.133374 0.182746 0.395084
67 1 0.414185 0.0330806 0.301975
1613 1 0.278426 0.00722655 0.344404
1275 1 0.333142 0.151508 0.361615
322 1 0.103543 0.461327 0.277977
1385 1 0.470809 0.393715 0.464804
1392 1 0.430523 0.150773 0.428098
1235 1 0.344323 0.249471 0.375529
1203 1 0.36944 0.0158752 0.00342547
225 1 0.346605 0.399579 0.210679
744 1 0.488223 0.215356 0.485368
99 1 0.295946 0.00986576 0.116014
503 1 0.216808 0.411002 0.411902
676 1 0.344265 0.250556 0.145274
347 1 0.00943077 0.0989944 0.245959
767 1 0.217304 0.317876 0.36852
1583 1 0.102839 0.00626294 0.205206
564 1 0.00224525 0.319289 0.368337
32 1 0.0435709 0.139588 0.128495
1458 1 0.343282 0.321861 0.20058
560 1 0.421425 0.398262 0.285243
753 1 0.405524 0.0995595 0.376224
1258 1 0.285996 0.0923972 0.287972
323 1 0.468461 0.268279 0.0609304
2034 1 0.135395 0.201306 0.0334884
1018 1 0.00256447 0.447269 0.211058
152 1 0.218091 0.0407044 0.496323
1359 1 0.370105 0.453161 0.41048
1450 1 0.0355148 0.235271 0.254367
1560 1 0.447343 0.0783527 0.243115
687 1 0.48112 0.413995 0.337865
51 1 0.359009 0.193724 0.430835
139 1 0.454018 0.143301 0.28925
1032 1 0.464485 0.468144 0.135217
58 1 0.0669345 0.157822 0.427146
1917 1 0.278416 0.293535 0.406963
1720 1 0.051123 0.429021 0.435561
1010 1 0.262578 0.0679865 0.395923
1349 1 0.203617 0.474337 0.0140107
1425 1 0.0390303 0.0753095 0.440271
48 1 0.203213 0.238085 0.40433
751 1 0.315334 0.356942 0.434541
905 1 0.285093 0.373861 0.356998
404 1 0.174136 0.00111677 0.389284
521 1 0.365355 0.0373588 0.465536
1981 1 0.0730964 0.457639 0.00578639
1026 1 0.124836 0.431009 0.426139
9 1 0.290853 0.456596 0.212778
1679 1 0.402906 0.088409 0.177843
1653 1 0.106753 0.22556 0.468377
1352 1 0.0633329 0.17787 0.00410777
258 1 0.492293 0.191509 0.413736
183 1 0.370859 0.470353 0.307287
1193 1 0.261328 0.114343 0.458704
351 1 0.477344 0.0605604 0.362156
1136 1 0.0361411 0.34862 0.199956
1103 1 0.131404 0.0129379 0.133221
90 1 0.366821 0.390142 -0.000521997
1534 1 0.34074 0.073093 0.0474519
1550 1 0.142518 0.44348 0.0497279
615 1 0.234319 0.34193 0.456216
1159 1 0.33007 0.121154 0.194715
513 1 0.490277 0.457689 0.0388494
1742 1 0.339279 0.303266 0.0856379
325 1 0.176394 0.416911 0.115919
1880 1 0.0601202 0.0584595 0.134928
230 1 0.466274 -0.00159839 0.246335
289 1 0.45509 0.4633 0.400815
2017 1 0.423765 0.333159 0.431966
760 1 0.219115 0.478151 0.0935448
599 1 0.397435 0.317613 0.359735
1746 1 0.162722 0.299473 0.431416
520 1 0.283908 0.0341433 0.458544
1172 1 0.335597 0.277671 0.457342
1580 1 0.415313 0.389198 0.380153
1785 1 0.359744 0.487052 0.0844657
1881 1 0.498462 0.484404 0.314045
1760 1 0.334342 0.037478 0.26985
785 1 0.401832 0.0722504 0.0957115
1801 1 0.386196 0.322897 0.280626
1416 1 0.0802422 0.372156 0.339922
91 1 0.488726 0.125762 0.201057
415 1 0.340854 0.0559477 0.363549
167 1 0.332901 0.104997 0.424009
1232 1 0.201009 0.0419171 0.0673376
663 1 0.330234 0.201808 0.214079
575 1 0.342831 0.277868 0.0125289
1223 1 0.458565 0.368754 0.0519066
983 1 0.388547 0.160986 0.501082
38 1 0.160916 0.240956 0.341983
1047 1 0.405493 0.180846 0.345355
587 1 0.397484 0.0235198 0.217755
1076 1 0.480973 0.0220287 0.0996086
1438 1 0.0152657 0.400411 0.368985
1755 1 0.108011 0.0219988 0.359722
1428 1 0.00656309 0.230424 0.0994381
1909 1 0.0233311 0.0204082 0.232991
1412 1 0.209839 0.462294 0.17289
633 1 0.463182 0.144037 0.495014
868 1 0.40587 0.312004 0.0377719
1247 1 0.0224858 0.499652 0.267095
890 1 0.460824 0.207981 0.170462
1860 1 0.425938 0.012807 0.148655
1633 1 0.410312 0.254238 0.456186
400 1 0.172855 0.00798144 0.24478
1573 1 0.0956687 0.301579 0.487464
701 1 0.495615 0.491213 0.461073
1913 1 0.275336 0.256268 0.0256818
1835 1 0.176066 0.106507 0.498985
2020 1 0.422919 0.474277 0.486886
1457 1 0.0583285 0.484491 0.329637
1678 1 0.127347 0.500579 0.192257
1289 1 0.230281 0.316112 0.00571144
286 1 0.0696381 0.389819 0.495396
731 1 0.306293 0.408433 0.49174
457 1 0.346508 0.224553 0.598089
1264 1 0.0974921 0.010051 0.939647
1553 1 0.203193 0.358663 0.594629
1468 1 0.346721 0.379447 0.816996
133 1 0.356948 0.00670809 0.923626
455 1 0.031489 0.0553529 0.731028
822 1 0.159601 0.0584926 0.779224
255 1 0.127242 0.41566 0.549444
59 1 0.0687382 0.0634353 0.891775
388 1 0.203589 0.188039 0.728247
1752 1 0.374752 0.220275 0.76506
871 1 0.40866 0.325253 0.833973
1912 1 0.411906 0.276336 0.591504
1440 1 0.0591779 0.311855 0.644856
241 1 0.264434 0.252339 0.736405
594 1 0.0285563 0.164771 0.936767
1890 1 0.34764 0.228899 0.517069
1020 1 0.0385194 0.261756 0.521974
572 1 0.496474 0.235831 0.569609
1437 1 0.0561976 0.339471 0.552211
1355 1 0.350552 0.098156 0.599013
224 1 0.350608 0.350179 0.593583
1819 1 0.16278 0.193511 0.646552
1828 1 0.230344 0.0187629 0.615306
1329 1 0.269828 0.353552 0.539451
1829 1 0.462054 0.425243 0.971783
552 1 0.495602 0.167428 0.788928
1563 1 0.487761 0.029782 0.743747
715 1 0.474229 0.461257 0.607196
346 1 0.489049 0.263689 0.760407
1885 1 0.423911 0.354567 0.960329
928 1 0.264078 0.0184019 0.551453
1895 1 0.327229 0.123842 0.680093
371 1 0.0350489 0.224196 0.62182
119 1 0.304296 0.339213 0.980408
1944 1 0.0620462 0.0863063 0.657304
1350 1 0.451446 0.206696 0.632098
399 1 0.297238 0.185074 0.638478
946 1 0.139318 0.168126 0.52839
77 1 0.191397 0.468206 0.713674
856 1 0.00505839 0.14612 0.672879
1952 1 0.157879 0.0500695 0.63693
363 1 0.0275339 0.205106 0.859129
1001 1 0.0325096 0.424567 0.560141
1821 1 0.268779 0.324604 0.709026
249 1 0.372884 0.323045 0.66892
1544 1 0.269271 0.00644526 0.706915
482 1 0.454368 0.345345 0.624975
1075 1 0.298007 0.360588 0.764957
1464 1 0.245616 0.290206 0.615277
1261 1 0.311454 0.278736 0.659344
738 1 0.0871041 0.422486 0.620977
1863 1 0.280751 0.37166 0.643136
539 1 0.494001 0.173445 0.874097
1024 1 0.202768 0.217552 0.549157
1756 1 0.264424 0.0853218 0.931403
1088 1 0.11801 0.48932 0.591583
1949 1 0.448161 0.0863397 0.882599
2016 1 0.403179 0.031422 0.766145
155 1 0.0885622 0.458988 0.710117
586 1 0.24264 0.449339 0.636013
609 1 0.421004 0.367763 0.554392
23 1 0.392243 0.489453 0.677839
1351 1 0.0464495 0.320418 0.955482
1348 1 0.366193 0.431008 0.534128
1966 1 0.147338 0.119393 0.670452
437 1 0.0874408 0.167712 0.666668
1789 1 0.31295 0.178956 0.753633
275 1 0.261362 0.089321 0.586678
809 1 0.341214 0.155735 0.826992
648 1 0.376647 0.252583 0.692485
1151 1 0.182719 0.257455 0.748247
543 1 0.224496 0.107124 0.742891
1837 1 0.270062 0.225691 0.580544
1431 1 0.147873 0.120837 0.59209
526 1 0.093437 0.388943 0.762139
1502 1 0.413643 0.391358 0.666963
1830 1 0.391722 0.231082 0.971982
993 1 0.493557 0.151826 0.572468
610 1 0.275495 0.445904 0.742583
63 1 0.229545 0.396597 0.70386
763 1 0.406996 0.0899352 0.530994
1017 1 0.443207 0.0942597 0.616834
819 1 0.000254334 0.379237 0.616036
1862 1 0.480248 0.218536 0.936798
1693 1 0.399971 0.440742 0.606446
842 1 0.209289 0.493909 0.92033
2014 1 0.0293003 0.437634 0.666716
191 1 0.353156 0.307494 0.740705
237 1 0.0310806 0.320756 0.770199
369 1 0.441407 0.0112674 0.912942
845 1 0.308642 0.240547 0.957329
1960 1 0.203882 0.122112 0.822383
1809 1 0.196137 0.07191 0.561833
724 1 0.483609 0.317675 0.827743
541 1 0.120771 0.217018 0.711981
1927 1 0.136636 0.499092 0.973163
1225 1 0.115715 0.261434 0.649356
903 1 0.219613 0.247801 0.673286
1964 1 0.253857 0.149274 0.68366
1658 1 0.459767 0.0965814 0.788927
1060 1 0.145255 0.126238 0.753744
62 1 0.221248 0.16177 0.604046
490 1 0.11812 0.347054 0.614787
393 1 0.116518 0.0133368 0.585185
2018 1 0.0875307 0.301809 0.722046
1892 1 0.365806 0.385199 0.724208
501 1 0.487475 0.353639 0.907783
528 1 0.0215662 0.430356 0.952785
1395 1 0.329082 0.439471 0.682642
1959 1 0.344409 0.0169734 0.549599
1630 1 0.0208901 0.155995 0.79601
485 1 0.393657 0.00640512 0.846082
321 1 0.0248329 0.433021 0.782758
733 1 0.170992 0.382222 0.82808
137 1 0.38929 0.0582204 0.650283
70 1 0.138239 0.0403256 0.517254
1757 1 0.0338303 0.029181 0.989047
966 1 0.466247 0.432678 0.893881
1278 1 0.195153 0.446502 0.574859
1521 1 0.311172 0.142789 0.949171
792 1 0.209489 0.304599 0.930046
504 1 0.103008 0.447883 0.815015
1148 1 0.429941 0.280969 0.897669
1158 1 0.126778 0.0549045 0.710747
1989 1 0.367482 0.0948823 0.791055
934 1 0.424862 0.100163 0.706534
1866 1 0.422521 0.225299 0.531701
1660 1 0.0736662 0.108041 0.579703
601 1 0.038857 0.369527 0.714029
1079 1 0.284651 0.106193 0.788291
299 1 0.0708695 0.118713 0.73618
933 1 0.226401 0.0380179 0.858385
584 1 0.0408632 0.232491 0.708532
1943 1 0.0972794 0.202042 0.919362
506 1 0.395415 0.173463 0.67645
1985 1 0.162243 0.471886 0.861631
125 1 0.0450488 0.181639 0.555777
79 1 0.113374 0.387071 0.688396
1466 1 0.15353 0.420915 0.948172
1102 1 0.446021 0.485308 0.793485
1039 1 0.198745 0.480692 0.794354
1118 1 0.17307 0.286015 0.597586
1903 1 0.432648 0.398607 0.828245
655 1 0.34739 0.345649 0.511736
1634 1 0.41229 0.168785 0.57857
1773 1 0.135634 0.365558 0.901148
639 1 0.414841 0.300723 0.510175
1198 1 0.32351 0.287129 0.557348
1070 1 0.191742 0.0815481 0.968741
123 1 0.372048 0.300255 0.94503
2031 1 0.226475 0.0819197 0.668837
582 1 0.161286 0.172052 0.877832
1472 1 0.257141 0.204859 0.841213
677 1 0.181802 0.0211255 0.920714
2046 1 0.158303 0.346314 0.501447
1922 1 0.11463 0.00339141 0.827493
1473 1 0.130773 0.129061 0.933361
719 1 0.304535 0.0516552 0.656233
711 1 0.314514 0.159317 0.568653
2032 1 0.0773553 0.146403 0.869696
712 1 0.0832111 0.0757252 0.80323
1987 1 0.336696 0.0616489 0.72788
1691 1 0.188462 0.245943 0.996275
1383 1 0.238687 0.400198 0.791416
1958 1 0.302808 0.289542 0.801309
1833 1 0.48448 0.440925 0.685867
1336 1 0.16663 0.400854 0.746819
124 1 0.485582 0.0314178 0.840884
902 1 0.42741 0.162206 0.761544
1093 1 0.100037 0.168986 0.800292
108 1 0.0660554 0.0897019 0.962443
75 1 0.304713 0.410984 0.581074
1915 1 0.0436484 0.377522 0.89836
761 1 0.324153 0.432344 0.87168
1979 1 0.348768 0.461408 0.772772
706 1 0.0307643 0.447369 0.864375
472 1 0.0376416 0.242663 0.958649
873 1 0.112776 0.204266 0.593231
280 1 0.158156 0.339055 0.974626
401 1 0.475509 0.243346 0.837072
290 1 0.202783 0.113699 0.893522
392 1 0.289192 0.129945 0.877023
82 1 0.283511 0.480806 0.819561
1423 1 0.14808 0.072876 0.867683
1865 1 0.349764 0.197947 0.905344
1932 1 0.365701 0.100996 0.890261
1269 1 0.300999 0.0551578 0.861929
411 1 0.370212 0.362477 0.894177
402 1 0.168255 0.24193 0.913407
261 1 0.27182 0.267723 0.881732
1048 1 0.401467 0.213122 0.839473
1688 1 0.108639 0.272457 0.947676
1780 1 0.442113 0.221847 0.718918
787 1 0.188701 0.232252 0.82929
1376 1 0.161684 0.430184 0.641817
377 1 0.09684 0.376558 0.838211
375 1 0.501324 0.129303 0.934695
1253 1 0.350236 0.262891 0.854786
47 1 0.291464 0.415379 0.979162
727 1 0.00303175 0.113939 0.869611
1565 1 0.45263 0.275316 0.98434
1128 1 0.246368 0.144308 0.535408
992 1 0.164805 0.304212 0.867274
73 1 0.101647 0.277569 0.569281
42 1 0.432395 0.343794 0.753893
221 1 0.246747 0.337796 0.833632
1715 1 0.441152 0.295947 0.696186
872 1 0.427584 0.153054 0.909013
2024 1 0.25333 0.0369285 0.77775
1513 1 0.469649 0.0455377 0.567487
297 1 0.058696 0.231214 0.7844
1739 1 0.484588 0.324455 0.554131
1334 1 0.0208931 0.00717162 0.570062
608 1 0.100282 0.465155 0.910156
311 1 0.276742 0.476236 0.939852
1883 1 0.253686 0.198245 0.980773
548 1 0.455037 0.0180032 0.65522
1823 1 0.430727 0.0744296 0.959963
729 1 0.49475 0.142208 0.718516
1055 1 0.106422 0.247601 0.857299
752 1 0.227846 0.193247 0.912746
922 1 0.0312096 0.11702 0.509668
1875 1 0.222173 0.38913 0.939229
144 1 0.0677276 0.307668 0.870291
1286 1 0.426658 0.425686 0.749588
1970 1 0.216555 0.326599 0.764227
1364 1 0.417217 0.138385 0.834949
69 1 0.486171 0.279541 0.637963
1736 1 0.320633 0.102529 0.522362
184 1 0.231714 0.431201 0.863387
962 1 0.340231 0.0711659 0.958798
1008 1 0.160709 0.318873 0.673186
129 1 0.135568 0.311545 0.793671
207 1 0.385969 0.142456 0.97835
1754 1 0.28838 0.353461 0.896714
410 1 0.190618 0.0108506 0.711822
2026 1 0.0380788 0.0145615 0.646486
989 1 0.0451955 0.490315 0.615693
319 1 0.392852 0.437148 0.919056
1374 1 0.291075 0.469641 0.533448
1188 1 0.16255 0.468314 0.505432
1741 1 0.293464 0.0116173 0.963301
1194 1 0.179801 0.175107 0.97506
1820 1 0.49072 0.356735 0.707047
660 1 0.306029 0.482518 0.608976
798 1 0.375033 0.493738 0.839534
1199 1 0.205881 0.0130964 0.993509
2013 1 0.165888 0.268548 0.504091
844 1 0.272008 0.266156 0.504672
916 1 0.477738 0.165468 0.997022
200 1 0.221566 0.41341 0.508718
1770 1 0.347901 0.983551 0.32609
1267 1 0.176968 0.574246 0.134779
944 1 0.208649 0.620961 0.192626
1799 1 0.0118235 0.638954 0.0837033
1281 1 0.0609949 0.897793 0.353682
1365 1 0.144036 0.650753 0.16345
1808 1 0.0248479 0.938896 0.265996
320 1 0.354125 0.578184 0.301312
1815 1 0.00824703 0.525627 0.469917
897 1 0.350949 0.941803 0.00927127
1009 1 0.372311 0.778045 0.0562243
279 1 0.208228 0.807799 0.493367
1240 1 0.260939 0.645258 0.399653
1059 1 0.3752 0.524772 0.369756
1471 1 0.334128 0.844703 0.136444
923 1 0.398063 0.801492 0.136563
1901 1 0.37762 0.846023 0.480368
1696 1 0.463715 0.678229 0.479824
533 1 0.411194 0.587036 0.0368502
556 1 0.470156 0.588117 0.416788
332 1 0.204122 0.952681 0.471477
396 1 0.315766 0.728644 0.0407219
1954 1 0.321581 0.948701 0.0810998
781 1 0.15036 0.505708 0.116994
1479 1 0.476614 0.604089 0.207867
2009 1 0.0560253 0.834844 0.200688
469 1 0.124027 0.914249 0.446468
1879 1 0.195259 0.965234 0.0831419
1692 1 0.241384 0.686409 0.459434
869 1 0.146316 0.876402 0.0839019
1341 1 0.0440125 0.970854 0.393508
489 1 0.495271 0.685262 0.185965
862 1 0.124543 0.583131 0.205635
681 1 0.0439379 0.940136 0.479932
698 1 0.258486 0.57922 0.235193
1185 1 0.447344 0.669678 0.115882
1345 1 0.365764 0.707078 0.0901943
867 1 0.406186 0.549811 0.209821
256 1 0.15113 0.91014 0.229224
12 1 0.0824855 0.74516 0.120851
1140 1 0.475475 0.650711 0.0449029
244 1 0.338175 0.97436 0.412
103 1 0.379838 0.629519 0.0908427
1426 1 0.27669 0.961582 0.493283
1533 1 0.0429203 0.531403 0.195045
1217 1 0.0932025 0.73568 0.0388829
1389 1 0.267947 0.952508 0.0203693
1343 1 0.115019 0.751953 0.263673
420 1 0.240393 0.741759 0.0556723
395 1 0.190749 0.547815 0.215758
1463 1 0.270465 0.932875 0.136969
1451 1 0.331686 0.763803 0.147419
1586 1 0.470895 0.801359 0.014166
613 1 0.122394 0.865186 0.16373
1847 1 0.345778 0.55795 0.461997
894 1 0.342772 0.68472 0.168559
565 1 0.0725985 0.907493 0.211932
1997 1 0.387639 0.911488 0.0697754
1377 1 0.227637 0.951128 0.229454
1180 1 0.44316 1.00196 0.494526
567 1 0.104403 0.615561 0.290581
1750 1 0.0408075 0.566293 0.396036
1587 1 0.30747 0.593512 0.129341
68 1 0.0409694 0.615866 0.251699
1016 1 0.175065 0.619956 0.0634832
1123 1 0.421024 0.598924 0.264367
1109 1 0.247135 0.532853 0.168196
1904 1 0.115364 0.674181 0.238844
1357 1 0.400458 0.61984 0.175513
1718 1 0.30476 0.648669 0.0653897
1930 1 0.226273 0.744264 0.146052
534 1 0.457378 0.961596 0.417116
665 1 0.0725197 0.67353 0.173128
1037 1 0.218449 0.652895 0.11995
1872 1 0.274604 0.805484 0.0970921
1637 1 0.494158 0.685356 0.332282
239 1 0.0274614 0.713421 0.0747195
1928 1 0.257054 0.537244 0.41323
921 1 0.481975 0.932012 0.179449
266 1 0.0298821 0.698366 0.457901
716 1 0.287937 0.516983 0.0986972
1371 1 0.456488 0.94451 0.110736
1323 1 0.412593 0.936242 0.21042
795 1 0.179763 0.540574 0.0493684
1733 1 0.194513 0.87847 0.452778
1489 1 0.341477 0.813596 0.421241
421 1 0.385519 0.743086 0.351236
931 1 0.113888 0.939862 0.147935
1174 1 0.408203 0.724536 0.154271
1727 1 0.179111 0.76958 0.0123567
1834 1 0.262428 0.97507 0.41196
1347 1 0.178245 0.636453 0.423426
1609 1 0.0389334 0.693422 0.245036
1765 1 0.183885 0.625483 0.277878
664 1 0.309192 0.876748 0.0515795
7 1 0.256489 0.653111 0.273834
703 1 0.498672 0.861068 0.487775
1027 1 0.079921 0.608232 0.444967
846 1 0.416848 0.87282 0.154766
1825 1 0.288407 0.705332 0.121558
673 1 0.288536 0.739276 0.30726
1636 1 0.250899 0.684095 0.197314
1166 1 0.0636434 0.614397 0.0169988
1209 1 0.495483 0.755037 0.156495
1794 1 0.0426912 0.763669 0.294359
252 1 0.163628 0.800548 0.131816
1222 1 0.147568 0.828427 0.2551
180 1 0.339698 0.831804 0.211351
880 1 0.433867 0.885501 0.323407
1006 1 0.270598 0.835946 0.459318
1870 1 0.257899 0.858589 0.144187
60 1 0.0432971 0.982724 0.140062
1933 1 0.0023181 0.947805 0.0778789
1231 1 0.46808 0.821291 0.199171
595 1 0.343279 0.623735 0.231529
851 1 0.0909557 0.559538 0.13673
1259 1 0.164888 0.637541 0.351411
1424 1 0.340117 0.903801 0.185957
1041 1 0.24417 0.879164 0.368835
337 1 0.236247 0.892662 0.0813755
1647 1 0.102911 0.725686 0.331548
1499 1 0.391944 0.985651 0.0864206
1963 1 0.20135 0.573561 0.379378
1500 1 0.449341 0.589553 0.114363
1974 1 0.26058 0.5861 0.328167
884 1 0.165664 0.723392 0.196201
865 1 0.104961 0.836562 0.454963
1687 1 0.181362 0.55464 0.302958
1206 1 0.174766 0.720321 0.395984
1421 1 0.478437 0.741568 0.24125
838 1 0.0986695 0.694199 0.409815
338 1 0.407406 0.850254 0.235725
789 1 0.195985 0.842615 0.198865
815 1 0.120743 0.787714 0.197864
471 1 0.343647 0.695399 0.266588
1956 1 0.407152 0.529022 0.130829
154 1 0.0118627 0.506536 0.01305
1265 1 0.211334 0.774943 0.233946
2040 1 0.402445 0.595742 0.382283
2010 1 0.272258 0.800823 0.375806
635 1 0.26735 0.79452 0.187052
1322 1 0.0633459 0.502348 0.0729914
1638 1 0.358493 0.974326 0.170176
176 1 0.157631 0.971 0.31104
1327 1 0.32191 0.894443 0.268098
254 1 0.191537 0.990145 0.171618
568 1 0.478012 0.897206 0.259776
1283 1 0.0327578 0.830501 0.353208
1091 1 0.251757 0.589879 0.0713131
893 1 0.308043 0.641245 0.330428
1648 1 0.126632 0.560741 0.362502
1976 1 0.354484 0.965496 0.486875
1254 1 0.265078 0.821443 0.291707
1708 1 0.432929 0.66528 0.229582
904 1 0.457932 0.760396 0.372724
1946 1 0.372277 0.815763 0.29955
1042 1 0.215249 0.689756 0.328792
998 1 0.333141 0.532124 0.159384
1953 1 0.439494 0.74755 0.0689389
1539 1 0.00503163 0.829551 0.141627
1612 1 0.0925479 0.652955 0.0968113
784 1 0.182845 0.713833 0.267305
1723 1 0.253918 0.908291 0.298375
110 1 0.446226 0.797971 0.299824
1204 1 0.194923 0.823036 0.382143
2022 1 0.201707 0.773899 0.325446
1192 1 0.428572 0.894169 0.415701
126 1 0.321987 0.530494 0.238348
1095 1 0.424937 0.825764 0.384608
1798 1 0.435513 0.954239 0.0295151
390 1 0.314065 0.966506 0.25823
2003 1 0.27397 0.877024 0.218031
89 1 0.336903 0.736893 0.425223
1096 1 0.0775308 0.503957 0.42316
2028 1 0.122612 0.944379 0.0734935
535 1 0.398513 0.628624 0.462471
1094 1 0.290042 0.60566 0.007523
956 1 0.162563 0.725535 0.0989692
1143 1 0.0974707 0.70853 0.493518
1484 1 0.416121 0.727586 0.434884
458 1 0.424316 0.527933 0.291888
1631 1 0.0655326 0.822771 0.0975291
1085 1 0.228837 0.765725 0.433262
1080 1 0.357517 0.668987 0.394753
1672 1 0.324864 0.666034 0.470722
214 1 0.0339263 0.730788 0.363861
475 1 0.118695 0.800339 0.332866
461 1 0.112706 0.994441 0.433852
951 1 0.313079 0.770042 0.244589
659 1 0.392316 0.673912 0.321078
622 1 0.496509 0.857447 0.133513
1071 1 0.111739 0.902892 0.296526
1388 1 0.264208 0.723177 0.37977
1011 1 0.156624 0.853592 0.00544712
1273 1 0.23113 0.667855 0.0295513
1331 1 0.454237 0.95704 0.331565
1299 1 0.331442 0.861489 0.344814
1599 1 0.382681 0.920417 0.362043
243 1 0.260511 0.59696 0.460303
259 1 0.0207954 0.757199 0.177489
691 1 0.12897 0.804088 0.0600748
829 1 0.460335 0.610052 0.332713
1656 1 0.182077 0.912918 0.152052
1749 1 0.264581 0.533498 0.0211478
628 1 0.284979 0.760829 0.493066
1902 1 0.298345 0.930853 0.351172
1619 1 0.0710044 0.841401 0.272816
941 1 0.041278 0.56873 0.31736
1980 1 0.0372833 0.869036 0.427422
1745 1 0.433114 0.662718 0.403036
1935 1 0.324603 0.891698 0.414636
886 1 0.136756 0.669364 0.0240672
2041 1 0.204502 0.815744 0.071215
450 1 0.398817 0.685625 0.0285943
1962 1 0.0544481 0.949542 0.0104223
271 1 0.210941 0.904076 0.00576121
301 1 0.0108087 0.873088 0.0490893
1391 1 0.428002 0.834634 0.0732442
431 1 0.134578 0.873299 0.384235
955 1 0.13138 0.761488 0.43492
470 1 0.118271 0.536813 0.262221
2 1 0.324677 0.581454 0.390449
1313 1 0.183007 0.877014 0.305924
135 1 0.0902672 0.881653 0.0244741
952 1 0.0889739 0.629247 0.366572
1495 1 0.114777 0.946201 0.371591
1664 1 0.0169706 0.564106 0.0593186
1133 1 0.104646 0.570383 0.0614052
1853 1 0.343809 0.563455 0.0716493
426 1 0.492662 0.72695 0.432225
1924 1 0.111099 0.548225 0.476893
1806 1 0.168351 0.500673 0.430646
1541 1 0.186127 0.573199 0.46903
484 1 0.0599274 0.768763 0.464605
494 1 0.029888 0.788079 0.0270442
1743 1 0.0451303 0.905879 0.130773
551 1 0.452234 0.528928 0.35773
344 1 0.0379512 0.608039 0.174103
1644 1 0.201628 0.938424 0.359121
1274 1 0.393514 0.75086 0.252479
502 1 0.389575 0.935315 0.285555
2025 1 0.286407 0.988561 0.190941
158 1 0.28382 0.799274 0.00868513
1052 1 0.449324 0.803899 0.454211
1316 1 0.307489 0.515673 0.335315
779 1 0.417792 0.541021 0.447576
823 1 0.252385 0.511527 0.265492
1971 1 0.0848323 0.982748 0.293143
1778 1 0.0383728 0.667185 0.311149
296 1 0.0277296 0.649285 0.400409
918 1 0.453929 0.5289 0.0597884
205 1 0.156618 0.958189 0.00329869
1127 1 0.417067 0.907321 0.491997
209 1 0.201512 0.837797 0.939617
994 1 0.219737 0.758703 0.891572
1408 1 0.171304 0.907525 0.925419
1685 1 0.343022 0.544192 0.992175
1465 1 0.48157 0.947692 0.545223
1295 1 0.0190223 0.522995 0.90255
357 1 0.0989305 0.562037 0.629034
465 1 0.395975 0.933077 0.659903
5 1 0.118252 0.708448 0.643484
336 1 0.319029 0.608411 0.519337
1911 1 0.262844 0.553307 0.949041
37 1 0.447023 0.631924 0.684481
1626 1 0.28465 0.796715 0.557379
1572 1 0.306625 0.811899 0.652914
1155 1 0.467896 0.784929 0.940818
1132 1 0.360596 0.607357 0.62313
93 1 0.384744 0.520021 0.747808
1582 1 0.235058 0.796699 0.63869
500 1 0.0598583 0.993021 0.775632
651 1 0.133734 0.964692 0.888298
1403 1 0.0532768 0.921783 0.812705
198 1 0.153866 0.775508 0.648163
127 1 0.204279 0.536208 0.746426
1330 1 0.135278 0.509203 0.667208
1884 1 0.0639716 0.917065 0.889756
709 1 0.285009 0.514107 0.712979
1737 1 0.284784 0.664086 0.634773
8 1 0.0862121 0.775986 0.908737
16 1 0.0831985 0.89619 0.525288
1470 1 0.143879 0.621856 0.579161
978 1 0.233332 0.600069 0.529405
1784 1 0.109886 0.675485 0.811533
1503 1 0.264351 0.595723 0.601392
874 1 0.211423 0.655289 0.59997
282 1 0.408448 0.735451 0.57205
1753 1 0.0850715 0.546054 0.550272
324 1 0.0713961 0.654753 0.663935
1629 1 0.313184 0.647801 0.740218
2011 1 0.374371 0.512147 0.91231
464 1 0.496593 0.902547 0.739636
1551 1 0.195269 0.693383 0.663674
949 1 0.184255 0.979224 0.544559
142 1 0.171317 0.641572 0.501816
1063 1 0.421425 0.562479 0.802464
597 1 0.128736 0.754754 0.721247
694 1 0.0430675 0.771516 0.554043
1213 1 0.490249 0.607941 0.975654
950 1 0.26864 0.936898 0.565054
592 1 0.238302 0.731574 0.59367
1950 1 0.341631 0.664542 0.574107
1900 1 0.253383 0.907347 0.899789
1492 1 0.250467 0.94607 0.65412
1285 1 0.222022 0.523576 0.665567
936 1 0.138658 0.828186 0.705966
1873 1 0.472724 0.721036 0.982242
1448 1 0.270631 0.682187 0.534874
409 1 0.120475 0.894994 0.843828
637 1 0.461224 0.793608 0.658096
812 1 0.0151163 0.670775 0.530163
1081 1 0.147752 0.62848 0.672425
658 1 0.483429 0.938544 0.643763
796 1 0.136566 0.573656 0.728864
358 1 0.128288 0.498096 0.758595
1916 1 0.440182 0.626772 0.577581
202 1 0.0263799 0.771625 0.765492
1300 1 0.225126 0.961226 0.945324
189 1 0.336677 0.858516 0.703126
1453 1 0.00523011 0.672656 0.704543
181 1 0.469896 0.670865 0.832663
2035 1 0.0766767 0.543278 0.964931
1303 1 0.456283 0.748301 0.50969
1029 1 0.12166 0.913116 0.690166
1689 1 0.0466288 0.737923 0.695463
1414 1 0.201761 0.739747 0.719121
1200 1 0.370282 0.843039 0.553845
1487 1 0.380722 0.839941 0.631849
1675 1 0.460444 0.593591 0.507873
1623 1 0.343856 0.839404 0.774756
1602 1 0.4426 0.86866 0.67874
2008 1 0.340621 0.667321 0.975479
688 1 0.455068 0.894379 0.886674
840 1 0.312651 0.728536 0.685117
726 1 0.101612 0.924107 0.95986
1782 1 0.425746 0.915067 0.588298
878 1 0.176851 0.628905 0.82287
544 1 0.176629 0.562604 0.622496
2000 1 0.408272 0.633096 0.877893
149 1 0.279885 0.649316 0.814454
1311 1 0.23503 0.730258 0.964055
416 1 0.253115 0.68148 0.712813
1067 1 0.341521 0.986823 0.790514
1294 1 0.495483 0.521941 0.688199
1627 1 0.344448 0.57182 0.837354
1277 1 0.483131 0.960259 0.96838
697 1 0.346906 0.780103 0.725831
1969 1 0.352899 0.817336 0.963119
1655 1 0.177932 0.6495 0.749558
487 1 0.482715 0.789245 0.775629
661 1 0.471815 0.718669 0.65476
1366 1 0.392164 0.779751 0.801764
65 1 0.391552 0.851295 0.847431
352 1 0.299477 0.732277 0.879601
1525 1 0.0748235 0.848185 0.659056
899 1 0.318156 0.914352 0.813089
287 1 0.182911 0.962725 0.624909
452 1 0.233037 0.561256 0.823115
911 1 0.0500966 0.778272 0.63164
517 1 0.302447 0.866732 0.576776
1531 1 0.0513566 0.612945 0.727976
735 1 0.488509 0.514933 0.971604
270 1 0.386002 0.684454 0.72079
1520 1 0.310692 0.747976 0.61286
1886 1 0.340142 0.53892 0.64971
435 1 0.394949 0.683139 0.51349
1456 1 0.303065 0.517994 0.87647
607 1 0.409294 1.00019 0.588067