ITEM: TIMESTEP
100000
ITEM: NUMBER OF ATOMS
2048
ITEM: BOX BOUNDS pp pp pp
0.0000000000000000e+00 1.3153131063095840e+01
0.0000000000000000e+00 1.3153131063095840e+01
0.0000000000000000e+00 1.3153131063095840e+01
ITEM: ATOMS id type xs ys zs
781 1 0.147422 0.204796 0.487767
1516 1 0.161568 0.057383 0.178499
1833 1 0.466818 0.0638706 0.0301522
398 1 0.302126 0.451237 0.026664
1656 1 0.106651 0.0177247 0.37184
114 1 0.430512 0.408442 0.119606
928 1 0.0188044 0.00319051 0.104727
1407 1 0.0323644 0.452997 0.420136
298 1 0.0840661 0.207979 0.184165
174 1 0.442149 0.134483 0.0500402
1950 1 0.200081 0.181877 0.432899
1960 1 0.0589686 0.287605 0.287524
597 1 0.486048 0.411705 0.383176
870 1 0.497615 0.426333 0.156544
886 1 0.178661 0.198769 0.07575
1899 1 0.372262 0.0784503 0.219899
1677 1 0.191566 0.407462 0.114702
1634 1 0.274979 0.185798 0.186169
1309 1 0.12051 0.15383 0.0917189
676 1 0.185279 0.150912 0.156362
42 1 0.148674 0.105558 0.236942
1403 1 0.0278394 0.36479 0.400307
317 1 0.473807 0.429258 0.259224
366 1 0.207527 0.308028 0.433154
1678 1 0.450053 0.256862 0.0506053
2028 1 0.163873 0.0199932 0.493215
951 1 0.0352204 0.13326 0.0145394
1632 1 0.307475 0.484024 0.474742
1462 1 0.166761 0.406218 0.269673
1097 1 0.159479 0.286779 0.100513
460 1 0.149805 0.337053 0.332904
818 1 0.182467 0.303418 0.190631
1583 1 0.220207 0.129658 0.0294601
1263 1 0.359815 0.291996 0.267833
1919 1 0.427139 0.300183 0.358974
1009 1 0.311475 0.22051 0.108187
843 1 0.301742 0.259668 0.327384
165 1 0.0221664 0.352176 0.257574
1703 1 0.338303 0.167921 0.149853
41 1 0.0169761 0.12922 0.456746
610 1 0.440058 0.460575 0.185373
118 1 0.358584 0.470484 0.0881433
1409 1 0.394589 0.191502 0.452089
1723 1 0.464813 0.493543 0.395694
650 1 0.218566 0.255525 0.143755
1544 1 0.227157 0.0238144 0.0538669
939 1 0.216894 0.342236 0.138781
518 1 0.458664 0.105336 0.323893
944 1 0.222723 0.299617 0.0631897
1032 1 0.269471 0.4157 0.458919
313 1 0.0422789 0.102861 0.393158
987 1 0.424716 0.312194 0.153375
146 1 0.216025 0.156611 0.232756
806 1 0.381103 0.351005 0.116598
1896 1 0.0483621 0.454154 0.17206
651 1 0.380304 0.099299 0.14941
401 1 0.248366 0.0914151 0.298952
1008 1 0.0976212 0.337881 0.247449
831 1 0.241832 0.1928 0.10896
787 1 0.286796 0.0349275 0.193442
270 1 0.471157 0.27771 0.417524
180 1 0.436042 0.0570934 0.116571
1758 1 0.124213 0.256301 0.227462
365 1 0.279415 0.435407 0.193083
782 1 0.0378786 0.485588 0.105255
15 1 0.225449 0.357253 0.218356
618 1 0.488001 0.179957 0.330661
1631 1 0.314541 0.390267 0.116304
1354 1 0.101138 0.43384 0.228199
1382 1 0.157942 0.0107884 0.255587
969 1 0.301488 0.360752 0.204017
46 1 0.0864173 0.203263 0.0261316
1915 1 0.295007 0.180542 0.0362783
1706 1 0.263399 0.461006 0.102625
277 1 0.136022 0.458307 0.103879
1162 1 0.393147 0.157163 0.250064
1931 1 0.316492 0.00973494 0.0505623
452 1 0.297419 0.203751 0.471987
213 1 0.193187 0.110931 0.471471
796 1 0.0101987 0.0556463 0.16846
409 1 0.0456415 0.28586 0.116766
1098 1 0.258185 0.478439 0.418602
688 1 0.310881 0.121711 0.0858216
145 1 0.363567 0.0940193 0.0414085
13 1 0.187993 0.13696 0.320809
1199 1 0.351694 0.194481 0.370955
750 1 0.237907 0.0577786 0.362565
505 1 0.015569 0.212608 0.0563126
490 1 0.12631 0.264094 0.319186
852 1 0.1807 0.452147 0.20993
1836 1 0.214889 0.232283 0.228608
1725 1 0.486625 0.473306 0.322962
321 1 0.355746 0.449806 0.162153
1445 1 0.085894 0.223882 0.108895
1311 1 0.343297 0.327992 0.472248
1700 1 0.00980139 0.00304096 0.250066
524 1 0.464131 0.372181 0.201087
8 1 0.397666 0.385161 0.389478
1339 1 0.380069 0.273075 0.113517
447 1 0.340235 0.303538 0.0531518
1450 1 0.091373 0.392985 0.293629
958 1 0.0281054 0.42745 0.268302
2012 1 0.176513 0.37829 0.0412321
635 1 0.464256 0.312021 0.485951
1188 1 0.389195 0.258098 0.00733284
1592 1 0.0585628 0.278819 0.441798
636 1 0.0655389 0.018293 0.306111
1695 1 0.0671432 0.181414 0.430284
185 1 0.0522672 0.447114 0.343465
1750 1 0.305926 0.0859229 0.489227
950 1 0.15136 0.219939 0.140842
1740 1 0.351544 0.285368 0.38258
1564 1 0.313365 0.138282 0.233195
2 1 0.136179 0.359258 0.471377
1812 1 0.209163 0.246181 0.475598
1148 1 0.1114 0.131907 0.162647
24 1 0.340304 0.107046 0.379727
352 1 0.234452 0.37001 0.310856
1168 1 0.164194 0.215596 0.277082
1166 1 0.357754 0.295871 0.179578
419 1 0.468232 0.462829 0.00420238
1100 1 0.10948 0.225494 0.382723
1550 1 0.318658 0.243022 0.0104119
1766 1 0.142206 0.368983 0.195982
1468 1 0.205094 0.282745 0.340299
526 1 0.252077 0.400338 0.389978
1799 1 0.248401 0.0150358 0.285012
657 1 0.101692 0.382736 0.0273443
1701 1 0.0785049 0.0506818 0.184132
1060 1 0.355217 0.00573572 0.187457
389 1 0.393306 0.388831 0.180436
498 1 0.0972686 0.337021 0.0953656
1076 1 0.354032 0.4358 0.321305
58 1 0.274088 0.111799 0.178695
2003 1 0.0526172 0.0862904 0.241692
1729 1 0.0889568 0.143122 0.257612
1385 1 0.267457 0.164642 0.288413
267 1 0.327589 0.476174 0.242323
252 1 0.00893875 0.302235 0.342832
207 1 0.0406651 0.157275 0.096737
504 1 0.379408 0.0865709 0.439451
604 1 0.289839 0.45612 0.34707
534 1 0.421899 0.314326 0.228299
779 1 0.475604 0.233617 0.12042
2031 1 0.320173 0.0656133 0.266374
1346 1 0.145496 0.184791 0.215244
1964 1 0.491104 0.00651472 0.132934
362 1 0.484347 0.269704 0.307906
197 1 0.445266 0.201997 0.39396
1597 1 0.0589433 0.368709 0.465711
981 1 0.484723 0.489814 0.118064
1805 1 0.0971718 0.402054 0.148793
119 1 0.299051 0.296155 0.12559
1109 1 0.0459078 0.201912 0.271667
829 1 0.252512 0.0108108 0.489609
1033 1 0.0661903 0.448423 0.0460411
794 1 0.461605 0.226971 0.476557
212 1 0.45949 0.12037 0.14474
539 1 0.0245696 0.086479 0.0963166
1522 1 0.191134 0.109723 0.392401
1949 1 0.391896 0.400617 0.467732
1135 1 0.0325699 0.195559 0.357634
776 1 0.0808537 0.0909936 0.310348
1593 1 0.389262 0.089678 0.288722
1296 1 0.344188 0.43427 0.415419
1886 1 0.273366 0.320162 0.263388
633 1 0.47502 0.0533858 0.491478
1212 1 0.103523 0.394302 0.412775
1133 1 0.185 0.314917 0.269697
2024 1 0.444213 0.409905 0.321294
911 1 0.179215 0.426055 0.436727
261 1 0.28707 0.253542 0.221597
816 1 0.322418 0.204596 0.259192
1968 1 0.276792 0.226256 0.395627
454 1 0.409244 0.321333 0.429111
442 1 0.209164 0.361756 0.490138
2017 1 0.172942 0.081997 0.107084
2046 1 0.415739 0.0229191 0.264224
79 1 0.0159241 0.0319951 0.364295
907 1 0.451907 0.0537928 0.404614
838 1 0.487083 0.0252416 0.283047
832 1 0.49406 0.197008 0.0613117
1221 1 0.230811 0.0755267 0.227119
1229 1 0.307437 0.0301949 0.383142
181 1 0.112167 0.126137 0.38406
872 1 0.118445 0.170531 0.323142
1653 1 0.0918184 0.119492 0.473993
1205 1 0.386751 0.227188 0.286889
583 1 0.354728 0.390861 0.0399414
361 1 0.280286 0.279435 0.454824
1951 1 0.215135 0.204363 0.344845
1873 1 0.0415229 0.0552942 0.0233188
1533 1 0.386327 0.0518806 0.358934
579 1 0.209169 0.439267 0.345613
592 1 0.266226 0.310257 0.3768
971 1 0.0399992 0.13769 0.176347
306 1 0.404055 0.458419 0.372972
1275 1 0.314624 0.40659 0.265928
1220 1 0.0157143 0.39631 0.0858486
873 1 0.120672 0.478493 0.171646
1762 1 0.200375 0.49528 0.1403
1316 1 0.255758 0.378435 0.0557377
1165 1 0.127511 0.299629 0.399942
2019 1 0.306696 0.369119 0.331254
1536 1 0.393012 0.416166 0.262512
1712 1 0.474117 0.100622 0.222419
405 1 0.217169 0.471306 0.492266
820 1 0.149176 0.0547392 0.313838
555 1 0.116023 0.465156 0.434672
783 1 0.465928 0.352798 0.283826
1241 1 0.372741 0.212494 0.207373
264 1 0.140407 0.0564877 0.422567
1170 1 0.469851 0.0140928 0.204391
108 1 0.0506733 0.0384444 0.42249
1111 1 0.235568 0.430995 0.25884
499 1 0.246903 0.0661478 0.437912
461 1 0.253367 0.136392 0.367242
400 1 0.00869933 0.0763534 0.303299
340 1 0.0360766 0.378185 0.180059
1666 1 0.178428 0.245992 0.397559
1456 1 0.333552 0.143055 0.31339
1909 1 0.380852 0.347808 0.327441
168 1 0.185522 0.374335 0.385498
20 1 0.153575 0.0634246 0.0332935
640 1 0.0785361 0.296606 0.1865
155 1 0.351719 0.252225 0.488446
6 1 0.311972 0.359094 0.408163
1273 1 0.334964 0.156583 0.435388
628 1 0.211165 0.464236 0.0426788
658 1 0.411575 0.161928 0.337779
1015 1 0.304035 0.048541 0.116984
541 1 0.454515 0.352491 0.0696048
1376 1 0.133236 0.432728 0.342634
696 1 0.137432 0.477297 0.0310831
184 1 0.0960687 0.495836 0.292687
1387 1 0.449117 0.125533 0.438308
728 1 0.275424 0.0757907 0.0287076
127 1 0.403438 0.195628 0.140707
1640 1 0.459892 0.441745 0.45361
1518 1 0.279375 0.312664 0.0103593
545 1 0.427842 0.420313 0.0492655
914 1 0.077664 0.33128 0.342265
301 1 0.460332 0.245115 0.204773
652 1 0.466775 0.170081 0.234111
1941 1 0.26462 0.139324 0.444168
1626 1 0.0953551 0.070515 0.0734869
613 1 0.368021 0.17889 0.0622376
60 1 0.386828 0.0292056 0.0662714
1817 1 0.469144 0.362541 0.432442
95 1 0.227833 0.236523 0.023064
770 1 0.0910881 0.270665 0.050634
927 1 0.230026 0.0474643 0.134653
743 1 0.385486 0.479778 0.474453
1295 1 0.0765782 0.435468 0.497669
615 1 0.445588 0.191209 0.00336635
444 1 0.00623725 0.388554 0.323306
120 1 0.13958 0.138077 0.0175839
173 1 0.179455 0.314562 0.00069729
332 1 0.0754598 0.266065 0.775108
1027 1 0.00120834 0.279047 0.562913
1838 1 0.0027361 0.356878 0.688034
117 1 0.499786 0.0300802 0.726395
1517 1 0.0752891 0.200176 0.954438
1228 1 0.331607 0.417945 0.883395
1312 1 0.00690802 0.206302 0.63454
1978 1 0.43715 0.198356 0.598337
323 1 0.26517 0.43233 0.609236
1297 1 0.0492038 0.0651982 0.802205
1872 1 0.380713 0.017597 0.798253
1187 1 0.10578 0.0909649 0.653862
623 1 0.200317 0.370759 0.564806
407 1 0.423036 0.416214 0.746011
115 1 0.258841 0.271739 0.611912
1548 1 0.417929 0.367418 0.863522
568 1 0.0668983 0.00321877 0.527538
584 1 0.212948 0.106618 0.928107
482 1 0.381439 0.0585443 0.607895
1244 1 0.481573 0.146046 0.621336
895 1 0.499318 0.0168956 0.881183
1369 1 0.0476684 0.39346 0.738644
1238 1 0.201892 0.0445656 0.975942
1218 1 0.358648 0.0576504 0.680149
754 1 0.422903 0.387549 0.559351
1020 1 0.129068 0.129805 0.920033
844 1 0.0833629 0.287811 0.594082
456 1 0.185825 0.19547 0.712958
755 1 0.496004 0.231038 0.545679
905 1 0.323292 0.146019 0.722042
1668 1 0.431593 0.341309 0.719892
2027 1 0.410095 0.433961 0.886933
1014 1 0.459695 0.253739 0.725549
369 1 0.462482 0.426526 0.625256
1023 1 0.177535 0.0269318 0.90717
1197 1 0.45709 0.276312 0.611686
1475 1 0.400037 0.128105 0.582312
978 1 0.0254396 0.194603 0.902314
1144 1 0.143205 0.239674 0.98679
1440 1 0.115442 0.316735 0.966076
1926 1 0.0825567 0.455796 0.779514
1877 1 0.484452 0.260067 0.967174
1908 1 0.0781493 0.381098 0.60945
560 1 0.211588 0.441084 0.716542
1128 1 0.487036 0.221779 0.657585
3 1 0.433272 0.357117 0.630063
319 1 0.26583 0.0113412 0.652298
1965 1 0.170902 0.148983 0.531306
388 1 0.128678 0.168422 0.631234
1057 1 0.127649 0.488863 0.582553
290 1 0.327288 0.274677 0.666746
1137 1 0.0561395 0.182865 0.578209
1236 1 0.207516 0.034292 0.707454
1645 1 0.228758 0.373696 0.697847
1056 1 0.298701 0.20553 0.64798
116 1 0.302358 0.0185788 0.573947
1073 1 0.0935369 0.0805022 0.878685
1140 1 0.132488 0.113144 0.582496
1714 1 0.366458 0.208518 0.685761
1353 1 0.163321 0.307566 0.886171
739 1 0.288253 0.334638 0.721405
304 1 0.275166 0.334625 0.504457
107 1 0.368516 0.296273 0.591667
1444 1 0.471778 0.083787 0.559445
1176 1 0.0313514 0.124179 0.874843
1784 1 0.441089 0.478103 0.835377
1344 1 0.0100687 0.0912129 0.739766
156 1 0.277476 0.0855431 0.617905
343 1 0.0543058 0.458838 0.959102
840 1 0.271449 0.420673 0.751025
807 1 0.433606 0.4698 0.540676
897 1 0.407886 0.233796 0.537092
1049 1 0.132515 0.348217 0.552506
2006 1 0.183163 0.247238 0.845702
686 1 0.263286 0.402734 0.541305
672 1 0.0598511 0.12438 0.945082
1502 1 0.377707 0.103632 0.754172
1207 1 0.167278 0.102425 0.849825
1483 1 0.251861 0.0436608 0.897108
647 1 0.13737 0.0618489 0.772659
403 1 0.302504 0.288023 0.555197
1737 1 0.255774 0.0880492 0.733234
1567 1 0.211591 0.300897 0.539019
967 1 0.28545 0.227777 0.719585
1585 1 0.297945 0.397506 0.681418
2043 1 0.253798 0.0928084 0.548277
654 1 0.129428 0.269992 0.714862
694 1 0.455302 0.464139 0.694091
1565 1 0.0203034 0.220432 0.832751
356 1 0.359731 0.361073 0.726865
1595 1 0.157023 0.486686 0.748124
1451 1 0.496644 0.473247 0.776018
892 1 0.047536 0.0249668 0.727915
28 1 0.304715 0.478399 0.555709
1007 1 0.297703 0.0839942 0.9512
764 1 0.187085 0.144244 0.764643
1542 1 0.25406 0.158236 0.597963
660 1 0.0202461 0.0361385 0.951625
680 1 0.302981 0.454732 0.814969
1994 1 0.301488 0.463939 0.945716
1875 1 0.392141 0.45975 0.98878
602 1 0.0389986 0.22375 0.511677
849 1 0.432373 0.152432 0.676798
761 1 0.196224 0.116002 0.626996
1512 1 0.0457906 0.0732315 0.610412
1017 1 0.0262258 0.360728 0.977465
1718 1 0.261486 0.466697 0.881382
1815 1 0.0444768 0.2989 0.842773
653 1 0.406347 0.0617271 0.934456
1846 1 0.152207 0.174512 0.826293
714 1 0.213859 0.22809 0.779526
1818 1 0.157582 0.339357 0.732021
809 1 0.0819078 0.248077 0.656978
105 1 0.00397538 0.413235 0.553312
1691 1 0.364239 0.370339 0.644061
1996 1 0.143261 0.4437 0.888903
1930 1 0.242967 0.297714 0.767653
1934 1 0.337243 0.357097 0.560797
536 1 0.0916059 0.176801 0.87598
1431 1 0.369083 0.031341 0.98798
1526 1 0.380883 0.374206 0.932053
1142 1 0.457156 0.38964 0.926653
1614 1 0.314738 0.200459 0.914037
2016 1 0.412987 0.186379 0.937102
2021 1 0.452376 0.475475 0.933339
734 1 0.49784 0.189058 0.893357
655 1 0.38438 0.113294 0.82875
1202 1 0.260267 0.167064 0.771694
621 1 0.252844 0.147099 0.695281
622 1 0.107229 0.237777 0.841368
229 1 0.392621 0.197335 0.768175
1523 1 0.425497 0.293339 0.785399
30 1 0.334466 0.383074 0.806085
517 1 0.312013 0.30925 0.795405
2041 1 0.0144388 0.272581 0.90674
1078 1 0.483284 0.363185 0.764708
1016 1 0.321007 0.203217 0.555973
1219 1 0.0949952 0.355266 0.689249
1636 1 0.150872 0.283776 0.638774
1623 1 0.490467 0.316282 0.558055
89 1 0.279523 0.374753 0.850641
634 1 0.388183 0.475371 0.671928
902 1 0.34774 0.4395 0.740857
91 1 0.47313 0.158818 0.532361
1201 1 0.0614755 0.304148 0.513629
720 1 0.128875 0.0194186 0.706151
324 1 0.361045 0.126976 0.922142
719 1 0.454533 0.0712361 0.657221
725 1 0.102455 0.131021 0.723041
903 1 0.469474 0.326284 0.987609
1834 1 0.0194053 0.38751 0.802681
1891 1 0.153652 0.203742 0.916755
923 1 0.18401 0.367547 0.947718
632 1 0.199136 0.0154225 0.610973
1972 1 0.402263 0.32597 0.526687
396 1 0.463849 0.0842608 0.88543
790 1 0.324973 0.217189 0.791939
1438 1 0.300067 0.159483 0.843184
1952 1 0.481385 0.219067 0.806967
913 1 0.0294962 0.34527 0.898366
303 1 0.221419 0.488066 0.96237
1421 1 0.210957 0.23055 0.572811
1150 1 0.488203 0.400075 0.526565
1449 1 0.4911 0.302469 0.805362
1572 1 0.015165 0.0456395 0.876286
1304 1 0.253204 0.355626 0.925164
1322 1 0.00485527 0.347819 0.606563
1961 1 0.315619 0.372664 0.96856
124 1 0.150224 0.422996 0.804067
380 1 0.347987 0.175774 0.981051
930 1 0.0597302 0.202563 0.728397
1924 1 0.458667 0.304248 0.881544
1868 1 0.436018 0.0736549 0.79197
1130 1 0.0950428 0.272751 0.902736
673 1 0.292195 0.0952512 0.798619
1314 1 0.216036 0.185495 0.869263
752 1 0.298002 0.28524 0.926461
1687 1 0.445296 0.147375 0.778241
12 1 0.268952 0.148091 0.964901
1415 1 0.372119 0.270936 0.737806
459 1 0.240601 0.234609 0.920327
614 1 0.322807 0.0508785 0.747303
1790 1 0.345592 0.0605465 0.878673
1298 1 0.330513 0.340414 0.887429
1904 1 0.0849689 0.387641 0.85984
315 1 0.240365 0.171374 0.513232
760 1 0.327498 0.115056 0.562825
936 1 0.342035 0.43654 0.624761
48 1 0.16817 0.433621 0.979676
1206 1 0.0191134 0.423903 0.887886
988 1 0.292523 0.492334 0.750811
1375 1 0.421627 0.487646 0.765147
1253 1 0.21421 0.42709 0.919233
1158 1 0.36072 0.219357 0.612515
961 1 0.378298 0.0254631 0.527378
1404 1 0.190277 0.113674 0.69919
130 1 0.122693 0.196914 0.761558
1768 1 0.209885 0.0582972 0.788603
437 1 0.23138 0.432619 0.824193
1355 1 0.142864 0.413594 0.723977
446 1 0.380127 0.20044 0.863404
1141 1 0.480913 0.13869 0.945184
1092 1 0.230802 0.305306 0.844155
1305 1 0.415055 0.0157654 0.870605
1074 1 0.428533 0.0550973 0.724799
1463 1 0.126326 0.488333 0.949302
608 1 0.22012 0.370292 0.77709
1556 1 0.268358 0.236436 0.835798
771 1 0.0362696 0.292616 0.719288
947 1 0.201375 0.185962 0.641413
414 1 0.332511 0.275946 0.860002
21 1 0.0472309 0.145038 0.776604
78 1 0.10542 0.340194 0.793821
707 1 0.151381 0.437217 0.651724
47 1 0.122758 0.219232 0.558676
1566 1 0.0462296 0.287119 0.977305
1408 1 0.0968351 0.399043 0.935322
1258 1 0.381703 0.441816 0.812056
775 1 0.241273 0.418003 0.990494
1435 1 0.41793 0.116069 0.984265
834 1 0.107425 0.119134 0.803829
218 1 0.0594716 0.147485 0.66338
1780 1 0.380698 0.296312 0.930799
624 1 0.26893 0.347186 0.590405
94 1 0.0428028 0.442743 0.675081
1665 1 0.114888 0.0645708 0.973464
1330 1 0.195798 0.478133 0.571836
1782 1 0.0039084 0.280904 0.644419
893 1 0.281521 0.0191153 0.807309
679 1 0.345078 0.1293 0.642852
1163 1 0.22833 0.276168 0.696689
77 1 0.445108 0.235069 0.880324
1180 1 0.183255 0.0644421 0.551976
706 1 0.332611 0.421043 0.509689
737 1 0.193017 0.183207 0.978163
1845 1 0.380137 0.333903 0.995587
1552 1 0.171315 0.306034 0.803308
1827 1 0.137766 0.42348 0.55755
661 1 0.463061 0.409999 0.819339
990 1 0.152371 0.355025 0.640724
1816 1 0.185587 0.367305 0.842447
934 1 0.241739 0.111357 0.851567
766 1 0.118995 0.027896 0.612607
548 1 0.0078979 0.119789 0.546937
1282 1 0.0825646 0.464551 0.856438
61 1 0.442483 0.151569 0.860949
260 1 0.417736 0.101135 0.502532
1245 1 0.103986 0.0649504 0.536711
1734 1 0.120315 0.00905332 0.848259
556 1 0.0489409 0.470996 0.591161
875 1 0.486045 0.0014112 0.544303
1559 1 0.312108 0.498329 0.655906
1429 1 0.223114 0.499082 0.792878
1118 1 0.146938 0.278309 0.502212
1359 1 0.248153 0.897824 0.103115
1122 1 0.403759 0.972341 0.0147502
1639 1 0.0373868 0.947691 0.290929
255 1 0.124196 0.645273 0.127601
428 1 0.00693062 0.683365 0.388501
1788 1 0.359279 0.792871 0.459786
1803 1 0.434198 0.652937 0.275606
921 1 0.185979 0.81848 0.39376
379 1 0.081969 0.871214 0.0147349
864 1 0.00515908 0.58954 0.0737757
1460 1 0.385142 0.731931 0.290427
1508 1 0.222309 0.892437 0.33614
954 1 0.291227 0.72106 0.0458106
1052 1 0.171631 0.811237 0.151521
899 1 0.347364 0.847515 0.405488
1331 1 0.0362496 0.878999 0.333605
448 1 0.167157 0.52334 0.224925
768 1 0.466284 0.776159 0.0386612
984 1 0.480507 0.644171 0.0926016
355 1 0.0617325 0.646859 0.0925842
578 1 0.163944 0.812294 0.308499
1411 1 0.272611 0.970828 0.115449
780 1 0.37669 0.98968 0.412902
1215 1 0.2833 0.83024 0.221909
952 1 0.0409833 0.827871 0.387417
1129 1 0.0804122 0.55876 0.266782
310 1 0.112738 0.683504 0.344276
1105 1 0.1498 0.925779 0.223968
297 1 0.359882 0.855071 0.21236
1940 1 0.439214 0.747203 0.224755
415 1 0.439208 0.502707 0.0576194
1127 1 0.0346961 0.531358 0.171784
1004 1 0.00201694 0.570902 0.468402
2000 1 0.389667 0.88224 0.028069
501 1 0.312722 0.65746 0.20874
1504 1 0.207111 0.616541 0.0861233
1811 1 0.162925 0.550579 0.0553343
1192 1 0.0810712 0.628453 0.481612
1739 1 0.418183 0.844502 0.421428
1856 1 0.439639 0.544084 0.127339
998 1 0.0589033 0.806659 0.279933
1413 1 0.490634 0.588884 0.272069
1704 1 0.374948 0.665861 0.333231
554 1 0.373585 0.519223 0.1479
481 1 0.481761 0.622449 0.463465
1804 1 0.163633 0.992895 0.0249967
231 1 0.418296 0.993354 0.472142
467 1 0.352042 0.905734 0.263079
1362 1 0.198593 0.758199 0.487215
1962 1 0.252774 0.821954 0.0827299
1167 1 0.127859 0.881146 0.424821
1659 1 0.401249 0.811315 0.158198
1694 1 0.368457 0.74937 0.11195
150 1 0.311983 0.931235 0.404226
1183 1 0.0918018 0.674307 0.423776
646 1 0.323735 0.507178 0.405609
334 1 0.335915 0.613012 0.126853
814 1 0.0663855 0.573646 0.121079
1717 1 0.226591 0.575708 0.169709
1820 1 0.438535 0.611257 0.156754
507 1 0.102555 0.847343 0.322529
1893 1 0.234326 0.653756 0.176289
1775 1 0.321829 0.829435 0.141991
1810 1 0.384823 0.539896 0.390557
717 1 0.315574 0.761714 0.405967
786 1 0.0682028 0.938632 0.477302
559 1 0.358408 0.692915 0.0563799
600 1 0.110119 0.758961 0.0715246
402 1 0.497646 0.624121 0.206515
1103 1 0.272348 0.914486 0.279268
1029 1 0.395431 0.685266 0.129995
1939 1 0.280864 0.950672 0.0168758
71 1 0.14451 0.867839 0.0815967
642 1 0.0531796 0.72455 0.101534
92 1 0.375431 0.892463 0.146699
1662 1 0.0441567 0.87 0.180184
638 1 0.338016 0.84231 0.299293
188 1 0.214969 0.74048 0.0655855
162 1 0.457606 0.8262 0.0958545
817 1 0.273205 0.827521 0.00944203
778 1 0.00746657 0.65563 0.141119
859 1 0.441849 0.54352 0.330401
590 1 0.439142 0.696282 0.0479954
1531 1 0.158685 0.61162 0.22718
1210 1 0.0261956 0.591044 0.233163
1937 1 0.19724 0.674438 0.320374
846 1 0.235158 0.618903 0.289072
1870 1 0.329066 0.574899 0.196022
1736 1 0.238646 0.537399 0.048656
1543 1 0.287081 0.729327 0.189805
1178 1 0.195618 0.800665 0.224704
891 1 0.12071 0.777726 0.242471
538 1 0.322821 0.61731 0.0487353
855 1 0.325729 0.819111 0.0613946
1510 1 0.249929 0.766787 0.332317
1581 1 0.105282 0.983141 0.21727
1785 1 0.438974 0.666498 0.395175
1147 1 0.0857812 0.933643 0.0534931
1082 1 0.451201 0.881159 0.482919
567 1 0.113494 0.929309 0.147731
1061 1 0.293732 0.885517 0.341899
1069 1 0.233631 0.766813 0.41827
1742 1 0.320734 0.68523 0.139399
1108 1 0.25204 0.833709 0.36678
2014 1 0.0580782 0.723332 0.468587
681 1 0.399944 0.620156 0.0646516
1554 1 0.468585 0.628028 0.333119
384 1 0.317731 0.659752 0.283303
408 1 0.175385 0.894522 0.14179
101 1 0.24077 0.501032 0.205539
1861 1 0.295371 0.635589 0.432459
1093 1 0.386343 0.643057 0.207391
788 1 0.113355 0.983621 0.436555
620 1 0.0393898 0.689882 0.294418
910 1 0.0933086 0.887395 0.262314
1494 1 0.323778 0.887155 0.0848769
1857 1 0.0514789 0.712192 0.0271427
1378 1 0.423044 0.891037 0.285238
1557 1 0.196049 0.70037 0.122187
1547 1 0.074307 0.793822 0.137022
151 1 0.286747 0.749419 0.115367
617 1 0.40546 0.622506 0.452058
1410 1 0.488584 0.805402 0.162114
1290 1 0.241205 0.514411 0.355379
1389 1 0.316008 0.970448 0.254904
76 1 0.251847 0.807355 0.15645
2011 1 0.0937649 0.739847 0.305648
1786 1 0.283931 0.567319 0.38493
716 1 0.0633079 0.872573 0.0924916
1046 1 0.00629726 0.928048 0.093136
1602 1 0.237094 0.657483 0.377245
547 1 0.450859 0.683877 0.180165
1233 1 0.0403472 0.617086 0.331758
1617 1 0.454103 0.556787 0.210074
434 1 0.0796139 0.596821 0.405115
965 1 0.0518088 0.965813 0.368076
1825 1 0.128232 0.743935 0.143018
192 1 0.305314 0.563581 0.316408
1283 1 0.261215 0.672439 0.0901483
358 1 0.253035 0.682929 0.248274
1006 1 0.176969 0.995326 0.379417
690 1 0.441768 0.755634 0.108625
1586 1 0.177251 0.552208 0.373981
945 1 0.422688 0.732098 0.444222
1869 1 0.00772281 0.956071 0.426889
1690 1 0.465847 0.944856 0.176026
729 1 0.386866 0.753536 0.373402
605 1 0.396465 0.811332 0.0559433
225 1 0.0442677 0.801796 0.0403045
1710 1 0.00540541 0.749558 0.420179
142 1 0.00901796 0.518156 0.363385
232 1 0.281732 0.956061 0.194083
963 1 0.0378289 0.669086 0.222794
1906 1 0.387549 0.943205 0.198886
1161 1 0.399561 0.975503 0.318162
1535 1 0.454678 0.508444 0.261112
436 1 0.447611 0.540806 0.489875
819 1 0.168377 0.749136 0.358584
1746 1 0.211279 0.923185 0.0415504
1985 1 0.455846 0.579439 0.4032
387 1 0.164272 0.602785 0.302805
480 1 0.33907 0.78612 0.212981
473 1 0.23131 0.949095 0.452556
1524 1 0.0904558 0.990903 0.125539
1352 1 0.268269 0.700182 0.44923
1720 1 0.356521 0.531679 0.0290253
1936 1 0.17911 0.733184 0.205604
1606 1 0.0344065 0.741424 0.217217
167 1 0.418023 0.812624 0.246938
453 1 0.167031 0.88448 0.287126
1010 1 0.406581 0.979326 0.137651
1488 1 0.176777 0.737156 0.280829
721 1 0.0570982 0.899956 0.408225
1850 1 0.229495 0.839394 0.281919
709 1 0.160944 0.981953 0.0982117
1324 1 0.395396 0.911524 0.445038
979 1 0.323539 0.979433 0.328139
34 1 0.474064 0.567349 0.0623359
612 1 0.492239 0.694858 0.244964
637 1 0.104426 0.596495 0.0512349
974 1 0.086676 0.626469 0.187325
201 1 0.0861783 0.759394 0.389718
257 1 0.440647 0.874947 0.182708
2004 1 0.440687 0.894039 0.37389
1520 1 0.304765 0.732142 0.25835
976 1 0.101309 0.70815 0.219769
1590 1 0.287999 0.559908 0.100331
1621 1 0.129441 0.863221 0.193069
1933 1 0.225983 0.546618 0.451884
1393 1 0.251101 0.562717 0.243002
1562 1 0.23265 0.8873 0.217267
394 1 0.20229 0.532239 0.284168
2022 1 0.15558 0.567168 0.128408
1247 1 0.299667 0.705557 0.344585
1721 1 0.447455 0.979333 0.0787016
793 1 0.490937 0.83159 0.231928
385 1 0.444377 0.986177 0.378498
1529 1 0.266028 0.813575 0.46524
1655 1 0.376265 0.941228 0.0804424
1776 1 0.44349 0.761679 0.319515
1647 1 0.00376248 0.844813 0.123553
1620 1 0.490519 0.832878 0.351989
1448 1 0.394232 0.820429 0.344784
2029 1 0.170014 0.623897 0.391502
413 1 0.342564 0.698435 0.436302
1525 1 0.0626517 0.530775 0.432542
1907 1 0.190232 0.705624 0.431433
703 1 0.440333 0.904927 0.0739537
671 1 0.46395 0.784271 0.407687
1443 1 0.379132 0.719632 0.198745
705 1 0.0343487 0.801747 0.463634
1041 1 0.112769 0.96357 0.294925
1102 1 0.165454 0.728341 0.00898059
2026 1 0.0416559 0.963396 0.184392
1802 1 0.0131394 0.656594 0.456373
726 1 0.176486 0.806368 0.0376073
2033 1 0.369345 0.904442 0.347091
208 1 0.142208 0.800688 0.458481
273 1 0.116444 0.513141 0.375183
699 1 0.121727 0.661647 0.274145
1242 1 0.333647 0.619242 0.37382
1673 1 0.060095 0.519318 0.0383664
281 1 0.399584 0.579492 0.279667
535 1 0.290515 0.908094 0.477339
1944 1 0.18643 0.954469 0.302164
1513 1 0.159767 0.926579 0.366262
1193 1 0.201439 0.887749 0.422771
763 1 0.201642 0.614698 0.463429
1637 1 0.0169018 0.752897 0.3468
311 1 0.00751694 0.903404 0.0104019
471 1 0.101656 0.545806 0.195872
1966 1 0.142838 0.534331 0.445478
1669 1 0.162955 0.938248 0.48071
585 1 0.477819 0.704573 0.343488
774 1 0.479795 0.939937 0.326542
236 1 0.356093 0.506451 0.336373
1976 1 0.3386 0.566914 0.46226
662 1 0.133332 0.689447 0.0665489
823 1 0.0635485 0.865082 0.489878
1279 1 0.206653 0.968404 0.160853
2045 1 0.0178607 0.882662 0.254153
1627 1 0.310374 0.997314 0.448979
917 1 0.350307 0.863141 0.486774
515 1 0.457913 0.957728 0.252928
1299 1 0.255176 0.968656 0.356982
451 1 0.300902 0.506462 0.165786
1613 1 0.495138 0.898916 0.120899
1151 1 0.00966573 0.503501 0.492891
199 1 0.453297 0.605899 0.00624458
237 1 0.49754 0.874102 0.42321
1783 1 0.00458245 0.988017 0.0303519
1307 1 0.212769 0.597234 0.00948954
1672 1 0.019598 0.628264 0.00641857
425 1 0.0257885 0.503002 0.292967
1917 1 0.467024 0.741058 0.500254
1722 1 0.0917918 0.517931 0.495723
81 1 0.0498687 0.880162 0.750041
1059 1 0.145726 0.625715 0.958987
302 1 0.392528 0.944261 0.898241
1844 1 0.146505 0.80686 0.853501
1075 1 0.369752 0.826448 0.594784
1368 1 0.106348 0.935282 0.855913
475 1 0.262266 0.578219 0.763917
296 1 0.0392803 0.74535 0.707714
1430 1 0.460122 0.644515 0.720893
1608 1 0.0419699 0.755106 0.928543
1884 1 0.0597845 0.747555 0.5403
1901 1 0.154717 0.905011 0.989189
417 1 0.26315 0.864378 0.596332
1579 1 0.31899 0.904198 0.914535
1957 1 0.256134 0.950782 0.728329
2007 1 0.0633022 0.559666 0.68765
1982 1 0.0464936 0.571808 0.527308
1713 1 0.158287 0.505195 0.830946
625 1 0.497604 0.821505 0.915207
224 1 0.445632 0.909147 0.677876
866 1 0.0583134 0.678566 0.671407
1530 1 0.415488 0.998286 0.581947
1913 1 0.3795 0.551596 0.660669
759 1 0.302051 0.797042 0.611405
1459 1 0.482647 0.817181 0.550339
248 1 0.109173 0.691516 0.618337
906 1 0.442577 0.987006 0.943036
685 1 0.293207 0.601055 0.653786
1635 1 0.0978494 0.872148 0.677647
506 1 0.48019 0.550103 0.768307
247 1 0.203811 0.781336 0.889604
1325 1 0.494574 0.976764 0.999726
599 1 0.283922 0.648926 0.723316
1808 1 0.331299 0.991406 0.893429
1876 1 0.385009 0.531384 0.534698
1888 1 0.477569 0.643085 0.594434
589 1 0.454637 0.69041 0.818749
749 1 0.468364 0.742641 0.67232
1398 1 0.432408 0.791358 0.750737
72 1 0.343159 0.946362 0.969079
2001 1 0.235712 0.785351 0.578845
1203 1 0.25209 0.521926 0.538646
877 1 0.417274 0.509825 0.605127
1633 1 0.00930862 0.80381 0.536234
912 1 0.489133 0.535372 0.878517
274 1 0.338762 0.947708 0.606785
370 1 0.206232 0.828415 0.521867
1112 1 0.106265 0.928426 0.734649
1394 1 0.18905 0.743683 0.653439
931 1 0.120911 0.603272 0.658468
278 1 0.396124 0.886351 0.735157
221 1 0.0914906 0.555761 0.979236
922 1 0.216053 0.583291 0.827125
1285 1 0.366027 0.684945 0.92214
1306 1 0.0586136 0.805554 0.862719
1763 1 0.127338 0.765472 0.602658
5 1 0.361801 0.789138 0.664113
1946 1 0.265954 0.795037 0.676224
359 1 0.405513 0.611908 0.923297
183 1 0.0589653 0.6537 0.550615
1062 1 0.064382 0.541309 0.823524
177 1 0.110909 0.541795 0.900704
411 1 0.0995163 0.509771 0.649191
1454 1 0.105131 0.959136 0.661079
858 1 0.22776 0.763567 0.802975
476 1 0.185942 0.720153 0.574194
1881 1 0.47345 0.721582 0.751602
1498 1 0.477073 0.959461 0.617542
1959 1 0.267328 0.756163 0.508509
718 1 0.495112 0.506475 0.595501
1496 1 0.252227 0.544285 0.914675
1091 1 0.178254 0.832214 0.631453
1177 1 0.372659 0.936438 0.687125
53 1 0.0171552 0.583125 0.867462
773 1 0.0815048 0.673394 0.879535
1156 1 0.18473 0.583128 0.620707
474 1 0.163751 0.892793 0.57941
519 1 0.454649 0.661901 0.899866
383 1 0.350968 0.545188 0.950102
607 1 0.478913 0.727697 0.971938
1065 1 0.071128 0.69861 0.772195
575 1 0.355505 0.664312 0.748176
1240 1 0.208317 0.611654 0.538296
1153 1 0.40487 0.580974 0.727383
805 1 0.138418 0.551961 0.71774
736 1 0.179143 0.718456 0.750174
488 1 0.247522 0.64911 0.59377
1172 1 0.193361 0.779139 0.964543
175 1 0.329396 0.695102 0.688591
1399 1 0.360868 0.629307 0.679534
1313 1 0.416353 0.77388 0.926084
1849 1 0.356671 0.515832 0.722554
1053 1 0.495864 0.71937 0.585438
595 1 0.331396 0.879092 0.774361
1070 1 0.193936 0.80293 0.708243
848 1 0.177333 0.964479 0.712034
386 1 0.42671 0.69634 0.621081
1920 1 0.218207 0.902172 0.529058
2032 1 0.00574367 0.515536 0.647226
1116 1 0.48981 0.802126 0.700687
630 1 0.395552 0.899849 0.626266
182 1 0.136764 0.657724 0.796735
1191 1 0.207896 0.708204 0.934322
230 1 0.0875361 0.98523 0.913727
497 1 0.448299 0.574843 0.563734
1538 1 0.413114 0.702023 0.709708
67 1 0.273101 0.968545 0.937505
1125 1 0.176652 0.506868 0.651428
157 1 0.429321 0.937244 0.826751
1288 1 0.110281 0.748492 0.819473
693 1 0.250379 0.897141 0.979239
733 1 0.282165 0.660578 0.814143
1601 1 0.176833 0.662802 0.665856
879 1 0.281654 0.724323 0.750431
1676 1 0.430259 0.603984 0.641248
664 1 0.290046 0.597477 0.857769
1181 1 0.0811768 0.610619 0.908992