ITEM: TIMESTEP
100000
ITEM: NUMBER OF ATOMS
2048
ITEM: BOX BOUNDS pp pp pp
0.0000000000000000e+00 1.1635780856594225e+01
0.0000000000000000e+00 1.1635780856594225e+01
0.0000000000000000e+00 1.1635780856594225e+01
ITEM: ATOMS id type xs ys zs
1076 1 0.499038 0.441609 0.058719
20 1 0.00520385 0.184416 0.0657087
12 1 0.24678 0.0657691 0.0630686
1153 1 0.50062 0.00500053 0.243672
709 1 0.132329 0.494483 0.372823
84 1 0.000755792 0.181296 0.183468
313 1 0.248763 0.377184 0.498212
1249 1 0.499847 0.254601 0.371518
212 1 0.00316992 0.186144 0.433136
45 1 0.381425 0.254282 0.000492146
54 1 0.188275 0.436713 -0.00216063
641 1 0.00744718 0.499351 0.251404
201 1 0.250182 0.00342057 0.370012
35 1 0.0605794 0.249413 0.0694578
581 1 0.117603 0.493217 0.127135
205 1 0.373452 0.00364355 0.376828
1121 1 0.496087 0.25417 0.130328
52 1 0.00784758 0.437045 0.0636588
1220 1 0.489155 0.058618 0.443118
579 1 0.0631752 0.49715 0.191498
1201 1 0.498742 0.364687 0.250819
145 1 0.0042509 0.126757 0.244718
1188 1 0.493849 0.310477 0.310084
40 1 0.11683 0.312082 0.0603871
143 1 0.440465 -0.000597386 0.31518
131 1 0.0645383 0.00769726 0.319442
1236 1 0.493065 0.178776 0.444132
51 1 0.0686606 0.37721 0.0598815
59 1 0.305606 0.37128 0.0626391
1073 1 0.495557 0.370932 0.00328697
277 1 0.118938 0.123221 0.50054
56 1 0.129795 0.436299 0.0654735
309 1 0.137542 0.370252 0.493878
60 1 0.238625 0.452969 0.0605819
64 1 0.380945 0.439996 0.0646469
1268 1 0.495389 0.43995 0.44074
310 1 0.18848 0.442949 0.500946
1108 1 0.49945 0.188873 0.178111
8 1 0.129518 0.0616507 0.0641924
16 1 0.377151 0.0622349 0.0517421
19 1 0.0671064 0.116156 0.0681771
74 1 0.321655 0.0607035 0.120232
31 1 0.431867 0.127723 0.0548218
164 1 0.00377478 0.306653 0.311583
589 1 0.377999 0.50136 0.125584
23 1 0.189107 0.127871 0.06266
27 1 0.315089 0.138929 0.0535858
32 1 0.380436 0.191841 0.0588308
46 1 0.43766 0.312669 0.0110235
82 1 0.0722013 0.179958 0.120482
24 1 0.119082 0.18861 0.0550642
28 1 0.250875 0.194387 0.0549969
1172 1 0.497321 0.188259 0.311021
98 1 0.0590709 0.307683 0.130006
39 1 0.185855 0.254491 0.0634019
43 1 0.308034 0.253973 0.0547004
109 1 0.375209 0.247557 0.124297
47 1 0.44345 0.244263 0.0633933
290 1 0.0724444 0.313172 0.494885
61 1 0.372368 0.376079 0.00454923
44 1 0.244619 0.312798 0.0658955
48 1 0.371052 0.31248 0.0634736
55 1 0.187456 0.374998 0.0596993
121 1 0.241993 0.37244 0.126294
63 1 0.437661 0.37516 0.0627281
133 1 0.126566 -0.00152323 0.247675
114 1 0.0591104 0.427404 0.127663
306 1 0.0655703 0.441892 0.497776
211 1 0.0599074 0.127599 0.432495
314 1 0.316357 0.44259 0.498459
81 1 0.00219959 0.121586 0.122791
66 1 0.0568212 0.0532251 0.123405
70 1 0.187707 0.0608852 0.127462
161 1 0.0111203 0.247572 0.242763
78 1 0.43805 0.0626258 0.116536
1204 1 0.497392 0.440148 0.321105
93 1 0.376805 0.131999 0.118494
83 1 0.0676514 0.124698 0.189334
85 1 0.12403 0.122241 0.122898
89 1 0.260204 0.130667 0.126685
91 1 0.324786 0.121809 0.191133
1665 1 0.493732 0.496099 0.240176
251 1 0.310434 0.373584 0.432222
88 1 0.126964 0.18906 0.18565
86 1 0.184175 0.190283 0.124118
90 1 0.313673 0.189491 0.121019
107 1 0.308445 0.24726 0.182767
94 1 0.438161 0.192138 0.125632
99 1 0.0625975 0.239502 0.18032
101 1 0.12677 0.255684 0.119789
105 1 0.246768 0.249223 0.124158
110 1 0.44459 0.313863 0.117064
111 1 0.432636 0.25643 0.181398
1169 1 0.495339 0.128158 0.246761
102 1 0.183579 0.315033 0.119896
106 1 0.304397 0.307026 0.122225
127 1 0.44246 0.371627 0.184495
115 1 0.0583795 0.37109 0.189009
117 1 0.123072 0.369239 0.12409
125 1 0.375385 0.381624 0.121656
591 1 0.43458 0.500403 0.185494
256 1 0.372594 0.444288 0.432544
1156 1 0.492012 0.0726215 0.316275
120 1 0.119284 0.42726 0.188064
118 1 0.187038 0.437632 0.124922
1041 1 0.495366 0.129368 0.000268954
122 1 0.306368 0.443406 0.117382
126 1 0.440316 0.438716 0.124627
1233 1 0.492323 0.128954 0.373739
711 1 0.194797 0.495158 0.429876
36 1 0.00262221 0.312945 0.0660907
4 1 0.000818438 0.0607899 0.0606532
72 1 0.120203 0.0617935 0.187635
76 1 0.246507 0.0622668 0.184594
80 1 0.383505 0.065011 0.179569
216 1 0.130592 0.179188 0.433241
87 1 0.189535 0.125478 0.188274
95 1 0.435365 0.129033 0.174131
92 1 0.250614 0.187176 0.186265
96 1 0.382798 0.187373 0.185411
103 1 0.186711 0.245365 0.1954
174 1 0.437512 0.315346 0.246329
173 1 0.364654 0.252309 0.242576
302 1 0.440152 0.303686 0.498548
104 1 0.13271 0.30879 0.186779
108 1 0.246537 0.306989 0.186292
112 1 0.367737 0.313245 0.184009
248 1 0.131497 0.441636 0.438208
1105 1 0.496816 0.124338 0.109928
119 1 0.187956 0.371816 0.192385
124 1 0.243347 0.438415 0.187168
123 1 0.309599 0.380815 0.174606
178 1 0.0648608 0.442457 0.259127
577 1 0.00721988 0.494454 0.129944
128 1 0.381536 0.440557 0.187399
651 1 0.317939 0.491139 0.30524
140 1 0.247959 0.0629091 0.309894
130 1 0.0639053 0.0595957 0.251936
147 1 0.0575633 0.117461 0.315216
149 1 0.118128 0.123108 0.257244
134 1 0.182857 0.0597848 0.242878
138 1 0.31162 0.0596255 0.253868
142 1 0.438063 0.062702 0.245158
243 1 0.0574187 0.385368 0.429273
146 1 0.0645216 0.183177 0.254992
153 1 0.250146 0.116333 0.248461
157 1 0.379833 0.132009 0.246115
150 1 0.175744 0.182176 0.25034
154 1 0.312667 0.185817 0.243451
171 1 0.317612 0.248637 0.31064
160 1 0.373933 0.191718 0.306939
158 1 0.442902 0.191392 0.250556
1092 1 0.498801 0.0648954 0.177743
165 1 0.120873 0.242834 0.253715
166 1 0.179112 0.313701 0.255315
169 1 0.250006 0.253158 0.247213
176 1 0.376408 0.307483 0.309721
175 1 0.438238 0.247861 0.313174
179 1 0.0543674 0.379461 0.309075
162 1 0.0670958 0.311582 0.249791
168 1 0.119559 0.326725 0.316974
170 1 0.311006 0.315431 0.245553
181 1 0.119019 0.375542 0.25124
182 1 0.18982 0.436029 0.251079
185 1 0.256156 0.374337 0.242011
186 1 0.315379 0.436108 0.241986
189 1 0.379671 0.376924 0.251195
68 1 0.00699549 0.0524284 0.188151
224 1 0.3769 0.184092 0.439834
1185 1 0.494707 0.253983 0.246754
116 1 0.00247776 0.43219 0.190025
190 1 0.446662 0.428277 0.255213
136 1 0.123163 0.0613796 0.313693
254 1 0.440593 0.44499 0.382451
202 1 0.318865 0.0705587 0.373311
137 1 0.24725 0.00130311 0.255694
198 1 0.190307 0.0644337 0.377764
155 1 0.312599 0.13066 0.310864
144 1 0.37769 0.0703237 0.315928
159 1 0.437985 0.131122 0.307321
208 1 0.373135 0.0601874 0.441311
232 1 0.14045 0.317843 0.434462
213 1 0.12201 0.118935 0.373086
151 1 0.184231 0.122648 0.30618
156 1 0.250547 0.184519 0.299894
152 1 0.122348 0.183105 0.318076
218 1 0.321059 0.182543 0.379394
237 1 0.375424 0.260196 0.384821
235 1 0.303504 0.241682 0.444142
163 1 0.0659486 0.249552 0.31268
167 1 0.186627 0.242249 0.3099
172 1 0.253635 0.307873 0.30937
183 1 0.201428 0.370501 0.310023
187 1 0.309884 0.37553 0.306253
238 1 0.439862 0.312238 0.391156
219 1 0.314228 0.121676 0.439184
184 1 0.131337 0.438049 0.312625
188 1 0.251195 0.434808 0.302463
191 1 0.437419 0.372532 0.314626
204 1 0.252168 0.053992 0.443437
246 1 0.195007 0.435781 0.364581
200 1 0.129107 0.0618304 0.436799
192 1 0.389983 0.444316 0.312087
194 1 0.0622284 0.0614394 0.380124
15 1 0.438887 0.00529851 0.055826
220 1 0.249183 0.180348 0.434105
231 1 0.193511 0.241452 0.436156
206 1 0.433991 0.0592247 0.376734
215 1 0.193003 0.122681 0.442146
221 1 0.383556 0.126375 0.376174
223 1 0.432848 0.120053 0.445076
217 1 0.251764 0.129597 0.368861
222 1 0.429256 0.195574 0.38009
252 1 0.254969 0.434572 0.440136
210 1 0.0624591 0.187189 0.370879
214 1 0.186066 0.180548 0.371197
233 1 0.251799 0.235648 0.36332
229 1 0.130515 0.2431 0.378267
230 1 0.198624 0.296931 0.370598
236 1 0.247676 0.311088 0.446527
240 1 0.376159 0.319031 0.43985
239 1 0.433717 0.243643 0.443827
226 1 0.0598993 0.315952 0.373925
249 1 0.257572 0.375422 0.371939
234 1 0.305425 0.305327 0.382339
242 1 0.0678072 0.446293 0.367534
247 1 0.190303 0.377835 0.422868
245 1 0.122848 0.386617 0.375802
250 1 0.31964 0.443018 0.372635
253 1 0.374437 0.373828 0.361249
255 1 0.431546 0.384779 0.441826
227 1 0.0747271 0.25732 0.437329
289 1 0.00979184 0.251918 0.488886
777 1 0.251426 0.500096 0.498846
261 1 0.119763 0.00103246 0.495768
6 1 0.185168 0.0722915 -0.0010188
1140 1 0.495163 0.437211 0.185118
225 1 0.0019589 0.249031 0.373779
113 1 0.00219327 0.37224 0.124656
196 1 -6.17964e-05 0.0617798 0.440601
525 1 0.366676 0.496216 0.0084203
707 1 0.0593279 0.496536 0.436764
197 1 0.122321 0.0042992 0.381774
715 1 0.312112 0.50025 0.436912
713 1 0.253803 0.499011 0.365789
515 1 0.059758 0.499257 0.0676199
647 1 0.194378 0.496846 0.30304
269 1 0.369333 -0.00202083 0.499898
1329 1 0.497494 0.376294 0.499993
53 1 0.125374 0.376976 0.00210505
2 1 0.0640347 0.0602063 0.00425312
58 1 0.314941 0.438989 0.0019088
34 1 0.0539749 0.310343 -0.000302978
281 1 0.253287 0.114393 0.499213
1057 1 0.500382 0.247582 0.00594161
1380 1 0.494425 0.314741 0.685392
353 1 0.00669627 0.255484 0.621816
775 1 0.187647 0.499038 0.565455
272 1 0.370871 0.0574598 0.56326
512 1 0.380552 0.428911 0.929646
835 1 0.0572606 0.491977 0.68643
1313 1 0.493969 0.238789 0.500337
275 1 0.0634766 0.122726 0.561201
963 1 0.0634147 0.495835 0.930541
14 1 0.433087 0.067853 0.995464
287 1 0.432809 0.118568 0.568977
327 1 0.196639 0.000112751 0.695414
280 1 0.121808 0.198436 0.573934
62 1 0.432476 0.449736 1.00019
369 1 0.00196802 0.382636 0.622042
292 1 0.00265544 0.310381 0.557304
1297 1 0.496798 0.121383 0.503397
484 1 0.00976216 0.313722 0.933073
389 1 0.128832 0.00576956 0.755507
356 1 -0.00101665 0.313373 0.690012
295 1 0.189526 0.24992 0.572881
259 1 0.0530005 0.0060058 0.568666
304 1 0.370539 0.305884 0.561014
296 1 0.125482 0.320937 0.558951
300 1 0.249208 0.309476 0.556621
387 1 0.0568418 0.00363195 0.802805
319 1 0.430927 0.369703 0.555907
307 1 0.0634628 0.378894 0.561255
311 1 0.183478 0.380819 0.55711
263 1 0.18767 0.00293944 0.572678
9 1 0.249463 0.0147208 0.996508
1441 1 0.495906 0.250834 0.74867
312 1 0.125721 0.44182 0.563248
897 1 -0.000940998 0.488003 0.749672
845 1 0.372541 0.500004 0.630395
1396 1 0.498795 0.433451 0.690449
17 1 0.00888601 0.118547 0.99953
1476 1 0.497221 0.0667187 0.939971
50 1 0.0617709 0.435054 0.994435
268 1 0.249935 0.0545421 0.563011
471 1 0.182633 0.134607 0.940588
317 1 0.369892 0.376876 0.500932
847 1 0.441089 0.497432 0.682573
476 1 0.248057 0.194615 0.928866
495 1 0.436074 0.254646 0.932509
264 1 0.120868 0.0618495 0.553381
334 1 0.430109 0.0574135 0.620988
500 1 0.000425117 0.438771 0.932191
279 1 0.18919 0.123362 0.555133
284 1 0.249044 0.187984 0.571094
346 1 0.308391 0.183817 0.634885
283 1 0.31473 0.115782 0.568187
288 1 0.367394 0.18249 0.568475
349 1 0.374627 0.126018 0.630175
350 1 0.44277 0.187539 0.632599
291 1 0.0622387 0.252043 0.557831
303 1 0.437267 0.238056 0.56229
357 1 0.123067 0.259384 0.629455
361 1 0.249709 0.255603 0.625538
299 1 0.307754 0.24837 0.565545
365 1 0.376859 0.247722 0.625168
354 1 0.0580474 0.316059 0.625852
358 1 0.190368 0.320955 0.620093
377 1 0.253173 0.377948 0.621436
362 1 0.316213 0.312398 0.617799
370 1 0.0612785 0.438459 0.622524
373 1 0.125394 0.374303 0.62015
374 1 0.183504 0.435199 0.626787
316 1 0.258516 0.443435 0.563931
315 1 0.309149 0.372931 0.558769
320 1 0.373193 0.434678 0.563293
382 1 0.429554 0.439853 0.629911
497 1 0.00717013 0.37437 0.873572
326 1 0.184225 0.0658361 0.62243
330 1 0.319465 0.0656379 0.63509
322 1 0.0619736 0.070583 0.627168
343 1 0.191864 0.129348 0.690087
345 1 0.247347 0.123032 0.62
331 1 0.31518 0.000727701 0.695989
1332 1 0.498538 0.431984 0.562123
341 1 0.128263 0.133346 0.622325
338 1 0.0610484 0.189554 0.631489
352 1 0.371497 0.182114 0.693942
351 1 0.438026 0.129098 0.693768
517 1 0.119141 0.499951 0.995632
355 1 0.0611425 0.254756 0.685663
344 1 0.131173 0.182937 0.687086
342 1 0.186985 0.19355 0.632914
367 1 0.439928 0.24841 0.687631
276 1 0.00287421 0.190294 0.557737
360 1 0.127913 0.31532 0.689785
364 1 0.245781 0.31627 0.687025
366 1 0.435997 0.317178 0.619099
371 1 0.0653644 0.374873 0.683412
375 1 0.185975 0.379164 0.685636
378 1 0.313735 0.441036 0.62593
381 1 0.370322 0.380801 0.630375
492 1 0.2479 0.318725 0.938347
380 1 0.246995 0.439117 0.68022
1857 1 0.492704 0.489198 0.619142
1505 1 0.49847 0.253714 0.873498
328 1 0.12379 0.0634594 0.691165
332 1 0.253553 0.0620422 0.691972
26 1 0.309393 0.192921 0.992803
336 1 0.379391 0.0661883 0.688735
386 1 0.0658732 0.0675498 0.745286
339 1 0.0619923 0.128553 0.687023
406 1 0.183982 0.196271 0.757711
409 1 0.247492 0.130275 0.753013
347 1 0.303942 0.125373 0.69315
348 1 0.251252 0.19236 0.693957
402 1 0.0553453 0.195352 0.755869
363 1 0.306285 0.251676 0.6853
414 1 0.442999 0.187628 0.746976
325 1 0.122587 0.00850648 0.627929
421 1 0.115773 0.254531 0.751345
359 1 0.187954 0.250622 0.693539
368 1 0.37346 0.311989 0.684362
418 1 0.0598346 0.311603 0.748544
437 1 0.121962 0.378218 0.744998
422 1 0.189458 0.312191 0.748073
379 1 0.31448 0.371836 0.688587
262 1 0.189248 0.0588576 0.499915
434 1 0.0625706 0.437373 0.754583
438 1 0.180373 0.435852 0.74694
441 1 0.246865 0.375652 0.752914
442 1 0.307859 0.436828 0.741071
384 1 0.374329 0.440323 0.691381
383 1 0.433745 0.37386 0.680645
456 1 0.125238 0.0593539 0.940166
376 1 0.120243 0.431467 0.682608
37 1 0.121865 0.253048 0.994762
1457 1 0.500509 0.376442 0.754778
503 1 0.182364 0.380744 0.939795
1508 1 0.492909 0.316046 0.939712
499 1 0.0661811 0.377161 0.941868
10 1 0.31296 0.0651052 0.993572
390 1 0.188034 0.0669843 0.750569
394 1 0.314178 0.0630346 0.749976
413 1 0.374649 0.122587 0.754443
398 1 0.436615 0.0634429 0.754329
405 1 0.124973 0.126066 0.755111
412 1 0.255632 0.191417 0.819673
410 1 0.309245 0.18018 0.756968
416 1 0.382696 0.19081 0.812579
408 1 0.118757 0.189904 0.818786
429 1 0.372316 0.244147 0.749928
431 1 0.439971 0.249497 0.812416
419 1 0.0658794 0.260341 0.818822
425 1 0.25956 0.249096 0.764707
426 1 0.31194 0.315013 0.753963
432 1 0.377072 0.31241 0.806864
424 1 0.125667 0.317727 0.810789
428 1 0.24696 0.314879 0.81452
443 1 0.312813 0.375518 0.812566
430 1 0.435961 0.310491 0.748063
445 1 0.378724 0.374245 0.74522
461 1 0.373851 0.00859506 0.883024
435 1 0.0621229 0.375636 0.809271
448 1 0.375671 0.432424 0.819357
446 1 0.438266 0.439299 0.752088
481 1 -0.00010026 0.254936 0.868405
444 1 0.25276 0.432725 0.815659
508 1 0.251784 0.437306 0.93612
462 1 0.438951 0.064472 0.876006
403 1 0.0574613 0.12594 0.807338
392 1 0.131614 0.0658125 0.811939
396 1 0.251431 0.0676333 0.810089
400 1 0.37777 0.0689559 0.820184
415 1 0.447017 0.129096 0.817739
907 1 0.310772 0.492761 0.806585
407 1 0.187906 0.127826 0.814534
411 1 0.313967 0.128369 0.813023
478 1 0.449227 0.187218 0.872742
1361 1 0.496409 0.121872 0.625042
466 1 0.0506197 0.185035 0.868628
470 1 0.185881 0.185757 0.871853
489 1 0.258216 0.25633 0.870814
427 1 0.321284 0.253925 0.817454
423 1 0.181378 0.253812 0.81436
486 1 0.188507 0.317979 0.875437
490 1 0.309858 0.315933 0.885507
493 1 0.378259 0.254063 0.871253
494 1 0.44033 0.315563 0.874801
505 1 0.247349 0.377081 0.875041
509 1 0.377722 0.366712 0.869919
501 1 0.128723 0.373436 0.878207
439 1 0.18522 0.380118 0.807385
506 1 0.316147 0.435053 0.875996
510 1 0.441001 0.437996 0.876194
447 1 0.436463 0.37017 0.806785
440 1 0.124165 0.441368 0.812106
502 1 0.183024 0.442197 0.877407
1524 1 0.49215 0.446544 0.940684
455 1 0.195929 0.00586815 0.932129
504 1 0.125997 0.440811 0.936371
498 1 0.0684226 0.434552 0.872905
1444 1 0.493105 0.31196 0.808859
464 1 0.369788 0.0704645 0.931567
450 1 0.0646973 0.0554983 0.870407
454 1 0.190696 0.0681672 0.874348
460 1 0.239402 0.0725026 0.938004
458 1 0.309953 0.0655955 0.875653
479 1 0.438923 0.134572 0.93469
297 1 0.24298 0.242004 0.508147
469 1 0.129684 0.1267 0.87395
473 1 0.252847 0.128 0.869763
475 1 0.311462 0.123488 0.929328
477 1 0.375573 0.132806 0.876981
487 1 0.194153 0.257226 0.929564
472 1 0.119983 0.190449 0.936118
474 1 0.318502 0.190558 0.873207
480 1 0.379176 0.190547 0.930759
483 1 0.0570425 0.242403 0.934088
485 1 0.125454 0.250183 0.874342
491 1 0.318829 0.250815 0.933064
496 1 0.379998 0.321637 0.936517
467 1 0.0672206 0.122671 0.932069
511 1 0.43976 0.379167 0.943918
482 1 0.0719214 0.315874 0.878584
488 1 0.131163 0.309423 0.934711
507 1 0.311286 0.381598 0.938346
1409 1 0.497939 0.00750954 0.753097
38 1 0.183201 0.310195 1.00157
270 1 0.431489 0.0552381 0.505422
13 1 0.377371 0.00629613 0.997908
1521 1 0.498721 0.375071 0.873249
453 1 0.130229 0.00340283 0.880551
391 1 0.19443 0.00221366 0.816705
1345 1 0.493007 0.0011989 0.620388
282 1 0.308944 0.182936 0.50429
5 1 0.138481 -0.00313576 1.00127
22 1 0.181811 0.1955 0.996865
278 1 0.179935 0.183808 0.496513
452 1 0.0113178 0.0584931 0.938762
1316 1 0.497626 0.315054 0.55495
1284 1 0.49182 0.0605343 0.559799
258 1 0.0560709 0.0666725 0.500435
18 1 0.0629896 0.187271 0.998503
285 1 0.369193 0.11755 0.502192
286 1 0.434915 0.175936 0.504272
49 1 -3.69702e-06 0.37973 0.996974
324 1 -0.00225002 0.0727424 0.683235
42 1 0.317047 0.308458 0.996675
318 1 0.435201 0.435143 0.502039
29 1 0.37247 0.134311 0.995589
399 1 0.445957 0.00611883 0.813979
294 1 0.188246 0.301672 0.50269
340 1 0.00238323 0.187943 0.68721
1300 1 0.495117 0.181047 0.565028
1348 1 0.496842 0.0669614 0.685499
41 1 0.249448 0.251135 0.992627
57 1 0.251224 0.379376 0.997182
1473 1 0.50061 0.00136584 0.881577
1377 1 0.496642 0.253124 0.624139
903 1 0.188762 0.497695 0.813315
783 1 0.429096 0.493103 0.565674
839 1 0.1783 0.493749 0.684106
899 1 0.0577486 0.497979 0.80887
969 1 0.254815 0.494283 0.871041
1921 1 0.501532 0.493366 0.74979
274 1 0.0660775 0.184574 0.50483
25 1 0.251972 0.132782 0.987173
293 1 0.127059 0.244284 0.505552
30 1 0.436984 0.187802 0.994087
266 1 0.313021 0.0568275 0.505643
298 1 0.309427 0.308315 0.503145
21 1 0.116831 0.122876 0.994326
301 1 0.371173 0.24375 0.505631
75 1 0.315391 0.995768 0.186409
520 1 0.115957 0.572659 0.0711133
524 1 0.24488 0.564457 0.0649376
753 1 0.00322044 0.873577 0.367285
625 1 0.00737731 0.874041 0.126978
535 1 0.186925 0.622181 0.062185
528 1 0.370841 0.566768 0.0578563
73 1 0.261676 0.997758 0.1212
531 1 0.0578063 0.625692 0.0545776
536 1 0.128878 0.694975 0.0587292
539 1 0.310422 0.620846 0.0576451
547 1 0.0701921 0.749513 0.058957
555 1 0.320002 0.750477 0.0657228
587 1 0.311203 0.506888 0.192237
552 1 0.129823 0.809199 0.0501014
551 1 0.194762 0.751092 0.0622237
563 1 0.0714207 0.867504 0.0553485
556 1 0.253549 0.812185 0.0619359
596 1 0.00349702 0.685532 0.174156
580 1 0.00149488 0.555903 0.186528
1780 1 0.495373 0.924141 0.436571
571 1 0.317861 0.868571 0.0672212
575 1 0.444204 0.873433 0.0580255
593 1 0.0122573 0.619029 0.124616
527 1 0.431981 0.505375 0.0607956
572 1 0.257557 0.935109 0.060197
518 1 0.188704 0.563707 0.000418779
770 1 0.0616481 0.563541 0.49057
576 1 0.385281 0.933583 0.0616619
781 1 0.375631 0.501302 0.497203
737 1 0.00205977 0.75199 0.370778
578 1 0.0617668 0.552715 0.127937
597 1 0.12888 0.628089 0.128804
601 1 0.249737 0.633785 0.12036
586 1 0.313867 0.56882 0.133785
810 1 0.310523 0.809855 0.500879
594 1 0.0730887 0.687512 0.119759
598 1 0.185243 0.688043 0.123297
540 1 0.252317 0.692374 0.0609099
602 1 0.312109 0.698653 0.130219
605 1 0.375292 0.624945 0.117568
543 1 0.438237 0.627875 0.0596095
544 1 0.382203 0.688623 0.0606435
559 1 0.439347 0.751472 0.0607398
610 1 0.0677893 0.810111 0.123983
613 1 0.127506 0.749476 0.12174
560 1 0.376129 0.815413 0.0661377
609 1 0.00529279 0.755348 0.126017
798 1 0.43076 0.685248 0.499044
614 1 0.183961 0.806823 0.125048
629 1 0.124046 0.873743 0.119422
622 1 0.449699 0.808374 0.129096
585 1 0.245302 0.501209 0.12889
567 1 0.192039 0.866819 0.0603689
633 1 0.249546 0.862355 0.127226
568 1 0.134431 0.936271 0.0553582
767 1 0.434669 0.868957 0.438788
719 1 0.440201 0.509149 0.444077
584 1 0.126787 0.56379 0.186548
582 1 0.180268 0.561682 0.126281
77 1 0.382172 0.999948 0.118986
595 1 0.0664712 0.625618 0.188323
599 1 0.192914 0.631491 0.184218
603 1 0.30771 0.63106 0.184353
590 1 0.430625 0.567131 0.120337
592 1 0.376519 0.563938 0.190127
600 1 0.120432 0.685677 0.186622
604 1 0.251353 0.697099 0.193124
608 1 0.374556 0.685178 0.186717
607 1 0.441796 0.629061 0.187209
643 1 0.0661787 0.506554 0.308143
615 1 0.188729 0.750325 0.188005
617 1 0.251095 0.753628 0.123073
606 1 0.43913 0.684585 0.125441
649 1 0.256988 0.505542 0.250499
616 1 0.1304 0.806475 0.186365
618 1 0.313816 0.80964 0.126051
621 1 0.380914 0.753541 0.130907
627 1 0.0721713 0.86676 0.185156
637 1 0.380129 0.867311 0.127241
516 1 0.000822083 0.56298 0.0640176
763 1 0.305888 0.872155 0.433749
632 1 0.130462 0.941343 0.186944
630 1 0.187488 0.934965 0.120609
638 1 0.444398 0.939346 0.120484
626 1 0.0586233 0.939782 0.118232
195 1 0.0543543 0.994959 0.441629
634 1 0.319071 0.932208 0.120038
640 1 0.383258 0.936877 0.184502
642 1 0.0609889 0.566192 0.241825
646 1 0.200152 0.563753 0.251308
588 1 0.250991 0.571616 0.189167
654 1 0.441705 0.566549 0.246223
1588 1 0.498605 0.94481 0.0569898
658 1 0.0662463 0.688086 0.249539
662 1 0.188997 0.686843 0.255096
666 1 0.319561 0.684769 0.251134
669 1 0.382108 0.624605 0.247538
611 1 0.0715629 0.751022 0.185447
619 1 0.318481 0.749927 0.195712
674 1 0.073082 0.810976 0.254713
678 1 0.191259 0.810985 0.253
620 1 0.258229 0.805629 0.191866
624 1 0.381814 0.813206 0.191706
623 1 0.445087 0.747078 0.185424
631 1 0.185426 0.877404 0.181518
639 1 0.439791 0.87432 0.182707
71 1 0.191044 0.99777 0.186949
141 1 0.376904 1.00084 0.26313
690 1 0.0646404 0.937221 0.262521
694 1 0.189799 0.936978 0.252669
635 1 0.306936 0.871224 0.186576
1217 1 0.494604 0.996006 0.378202
829 1 0.368292 0.867378 0.490911
636 1 0.252735 0.940272 0.192043
1540 1 0.497907 0.568958 0.0560781
702 1 0.439681 0.935902 0.245491
69 1 0.126567 0.994549 0.1146
740 1 0.00710391 0.813908 0.432522
648 1 0.132302 0.565531 0.306865
652 1 0.25859 0.567248 0.310887
79 1 0.441393 1.00074 0.182124
659 1 0.0615105 0.620539 0.312381
661 1 0.122614 0.616765 0.246362
665 1 0.249549 0.629765 0.249632
650 1 0.312704 0.573883 0.248751
656 1 0.375826 0.55865 0.309445
663 1 0.197196 0.625505 0.311266
689 1 0.016587 0.872763 0.246427
675 1 0.0638966 0.750219 0.312438
677 1 0.129908 0.75152 0.255125
681 1 0.249468 0.750127 0.256649
685 1 0.387607 0.757429 0.251921
670 1 0.438207 0.687555 0.244575
684 1 0.255511 0.821312 0.314947
566 1 0.193076 0.926877 -0.000780541
693 1 0.130439 0.87551 0.259582
682 1 0.310726 0.817241 0.256542
688 1 0.382611 0.816201 0.316838
686 1 0.442418 0.817625 0.253747
697 1 0.245832 0.87378 0.242225
698 1 0.317141 0.934072 0.249807
701 1 0.371084 0.877052 0.244657
703 1 0.443216 0.872367 0.312323
139 1 0.311373 0.995647 0.315351
793 1 0.251239 0.632195 0.494864
704 1 0.39087 0.929565 0.311865
760 1 0.128049 0.936884 0.443588
706 1 0.054249 0.558061 0.374788
805 1 0.123012 0.751411 0.493856
710 1 0.194038 0.569403 0.370361
714 1 0.314653 0.56328 0.371713
526 1 0.433836 0.562406 0.00235641
725 1 0.124447 0.618759 0.370975
667 1 0.319517 0.631083 0.313201
671 1 0.43168 0.617962 0.316748
722 1 0.0605136 0.688457 0.374259
664 1 0.123106 0.68619 0.316517
726 1 0.185233 0.687868 0.377044
668 1 0.266299 0.693593 0.314477
672 1 0.377317 0.694718 0.315199
733 1 0.375686 0.619508 0.372812
745 1 0.260842 0.757747 0.367399
683 1 0.323234 0.756791 0.309035
734 1 0.442792 0.685692 0.373721
764 1 0.247707 0.939164 0.442833
583 1 0.187451 0.506815 0.191506
680 1 0.123676 0.81299 0.317094
679 1 0.186324 0.749683 0.315701
746 1 0.320053 0.815272 0.369819
687 1 0.43929 0.754975 0.313864
749 1 0.375927 0.750036 0.373742
742 1 0.188457 0.814401 0.372882
699 1 0.325308 0.880212 0.311611
548 1 0.000648174 0.815018 0.0575434
691 1 0.0705856 0.875388 0.316873
757 1 0.129071 0.874545 0.382457
695 1 0.18864 0.871983 0.310439
765 1 0.381331 0.872093 0.374879
696 1 0.128172 0.938158 0.322009
700 1 0.252994 0.935476 0.302741
830 1 0.437898 0.930063 0.500282
135 1 0.18453 1.00204 0.314195
716 1 0.251535 0.564736 0.439968
723 1 0.0576796 0.630681 0.432064
712 1 0.137343 0.549769 0.430093
718 1 0.435523 0.561156 0.372308
728 1 0.124515 0.689367 0.437835
731 1 0.309907 0.621846 0.437756
729 1 0.25778 0.627411 0.371321
730 1 0.322548 0.685747 0.376231
736 1 0.374746 0.68261 0.438118
129 1 0.00187196 1.0026 0.256271
741 1 0.122458 0.750606 0.380337
743 1 0.19507 0.75195 0.434031
732 1 0.25197 0.69258 0.42556
747 1 0.312063 0.754192 0.430524
11 1 0.317424 0.997446 0.0580947
738 1 0.0648151 0.812022 0.375216
748 1 0.252424 0.810352 0.431438
752 1 0.370315 0.810107 0.438923
751 1 0.436049 0.743874 0.441118
676 1 0.00124283 0.806187 0.305567
755 1 0.0570095 0.877371 0.4386
759 1 0.195431 0.870561 0.43695
761 1 0.249323 0.883683 0.37135
750 1 0.447158 0.806996 0.37432
809 1 0.255272 0.743065 0.50073
754 1 0.0654857 0.933123 0.382158
758 1 0.189357 0.939269 0.377138
762 1 0.312751 0.941134 0.372629
768 1 0.368999 0.936218 0.437688
1617 1 0.500421 0.622555 0.119813
766 1 0.44025 0.927926 0.375351
717 1 0.379907 0.498525 0.372904
720 1 0.3766 0.560822 0.434654
557 1 0.37555 0.752982 0.00283576
523 1 0.307118 0.505823 0.0655379
727 1 0.180283 0.622208 0.441665
645 1 0.128966 0.503355 0.250135
786 1 0.0545033 0.69332 0.494805
655 1 0.444925 0.506556 0.309361
1604 1 0.494306 0.564072 0.175302
735 1 0.438145 0.622946 0.426478
739 1 0.0552126 0.749488 0.435317
1713 1 0.503062 0.880458 0.245367
612 1 0.00831198 0.80777 0.19004
744 1 0.122192 0.810164 0.434569
1684 1 0.496644 0.690517 0.30917
532 1 0.0019464 0.694659 0.0625243
207 1 0.436254 0.991577 0.436081
67 1 0.0658927 0.994501 0.183198
806 1 0.188234 0.81123 0.495834
778 1 0.3203 0.561501 0.497443
773 1 0.127533 0.504698 0.498262
3 1 0.0594519 0.999765 0.0600716
203 1 0.310729 0.993219 0.438083
789 1 0.116295 0.626958 0.493576
554 1 0.31663 0.811238 0.00347657
199 1 0.187562 0.998739 0.437296
519 1 0.169069 0.510756 0.0640753
1729 1 0.501968 0.50161 0.385757
653 1 0.378557 0.501507 0.250987
813 1 0.370679 0.747624 0.493834
1537 1 0.503972 0.502655 0.000108511
7 1 0.194898 0.995114 0.0658253
785 1 0.00600127 0.625452 0.497251
825 1 0.250066 0.878391 0.499178
562 1 0.066333 0.938381 0.00487441
1553 1 0.501377 0.630163 0.00284748
790 1 0.182955 0.694641 0.49521
1281 1 0.496498 0.993789 0.491666
553 1 0.252613 0.756277 0.00298738
802 1 0.0639476 0.811685 0.49554
514 1 0.0618794 0.56388 0.997786
776 1 0.120457 0.565504 0.557253
569 1 0.255013 0.876729 1.00223
973 1 0.377961 0.502885 0.873414
513 1 0.00507734 0.504905 0.995925
791 1 0.195136 0.62561 0.564689
780 1 0.257067 0.566001 0.559694
784 1 0.373555 0.556723 0.559767
799 1 0.441586 0.624906 0.57115
522 1 0.309259 0.56095 0.993251
800 1 0.374377 0.684994 0.563243
265 1 0.254966 0.991949 0.509999
533 1 0.120545 0.637847 0.99818
771 1 0.0665584 0.503828 0.557252
803 1 0.0647138 0.759166 0.565702
807 1 0.193613 0.747811 0.561176
546 1 0.0632832 0.809977 0.992466
530 1 0.0558184 0.697929 0.994464
815 1 0.43159 0.745515 0.551054
967 1 0.188035 0.503204 0.943938
779 1 0.312336 0.502154 0.558758
808 1 0.136047 0.80713 0.564286
822 1 0.18782 0.939858 0.502291
819 1 0.0653269 0.866921 0.558655
823 1 0.184419 0.873761 0.557726
534 1 0.19311 0.689739 0.999579
1796 1 0.497421 0.562096 0.570376
841 1 0.252587 0.508414 0.620975
965 1 0.125222 0.499726 0.875519
2017 1 0.496701 0.752016 0.868624
824 1 0.132173 0.938448 0.559784
271 1 0.429345 0.997304 0.566086
542 1 0.432712 0.699511 0.994099
827 1 0.302037 0.869119 0.557756
831 1 0.443565 0.873963 0.567638
323 1 0.0617113 0.991472 0.699375
1841 1 0.500574 0.869735 0.500252
1012 1 -0.00227066 0.935861 0.938777
834 1 0.0503298 0.566368 0.625645
838 1 0.184013 0.567775 0.630679
842 1 0.313773 0.560449 0.623196
846 1 0.433804 0.562722 0.624141
787 1 0.0649131 0.632475 0.558673
853 1 0.131608 0.628779 0.624589
857 1 0.255972 0.625898 0.623824
451 1 0.0660239 0.997827 0.93119
792 1 0.125711 0.688976 0.570536
854 1 0.197089 0.684151 0.62187
796 1 0.254491 0.68665 0.562976
795 1 0.311177 0.62388 0.558626
861 1 0.378731 0.626053 0.619472
873 1 0.257112 0.761108 0.633108
811 1 0.316441 0.755871 0.56456
905 1 0.238852 0.506514 0.747625
558 1 0.443517 0.810409 0.994292
866 1 0.0639351 0.819663 0.63479
870 1 0.180776 0.817854 0.629864
874 1 0.313603 0.821025 0.621455
878 1 0.445083 0.805509 0.624687
837 1 0.122476 0.512272 0.619034
812 1 0.242482 0.816302 0.559894
816 1 0.374664 0.816814 0.56212
882 1 0.0579439 0.945682 0.633878
886 1 0.185351 0.935368 0.623175
893 1 0.381229 0.872228 0.626836
1873 1 0.494201 0.625843 0.631925
828 1 0.24381 0.930418 0.568055
832 1 0.367292 0.917101 0.558945
911 1 0.434097 0.504057 0.816436
1809 1 0.501595 0.630962 0.507836
1020 1 0.254945 0.940618 0.940564
2033 1 0.493762 0.868892 0.870143
1015 1 0.189622 0.871797 0.935173
1889 1 0.499446 0.747127 0.619288
840 1 0.117491 0.571818 0.681143
844 1 0.248305 0.565891 0.684758
859 1 0.310912 0.628867 0.685568
848 1 0.368479 0.561393 0.689322
549 1 0.127582 0.748169 0.996068
860 1 0.254135 0.686933 0.685847
858 1 0.315835 0.683883 0.625659
864 1 0.375881 0.686338 0.687034
818 1 0.0566658 0.939055 0.506873
850 1 0.0557548 0.696261 0.624852
877 1 0.379327 0.759265 0.622884
875 1 0.322047 0.749736 0.684394
862 1 0.429863 0.690983 0.62607
869 1 0.126072 0.756444 0.625029
876 1 0.245117 0.813407 0.693577
879 1 0.433588 0.746594 0.686913
833 1 0.000897561 0.502118 0.61428
1023 1 0.436285 0.872837 0.93587
885 1 0.120537 0.883375 0.623184
887 1 0.177817 0.882227 0.686239
880 1 0.380908 0.811269 0.687139
883 1 0.0652621 0.881992 0.693041
888 1 0.129158 0.949009 0.68423
889 1 0.247119 0.87567 0.638794
891 1 0.31997 0.871741 0.688302
852 1 0.00298382 0.69542 0.685714
892 1 0.255519 0.9385 0.687869
890 1 0.310916 0.931668 0.623139
896 1 0.372362 0.941337 0.684028
894 1 0.436532 0.929773 0.627372
902 1 0.178596 0.557658 0.736776
1024 1 0.37733 0.937306 0.936695
975 1 0.433422 0.507236 0.937925
910 1 0.434193 0.567603 0.754152
898 1 0.0622886 0.562986 0.743473
1014 1 0.199325 0.937201 0.873572
906 1 0.301021 0.557616 0.760213
921 1 0.247136 0.623707 0.751172
925 1 0.370247 0.633416 0.750047
863 1 0.429395 0.621512 0.687642
851 1 0.0543288 0.629739 0.685677
855 1 0.18759 0.631202 0.683554
922 1 0.31205 0.690498 0.742008
926 1 0.436204 0.683179 0.753876