ITEM: TIMESTEP
100000
ITEM: NUMBER OF ATOMS
2048
ITEM: BOX BOUNDS pp pp pp
0.0000000000000000e+00 1.2302095357258066e+01
0.0000000000000000e+00 1.2302095357258066e+01
0.0000000000000000e+00 1.2302095357258066e+01
ITEM: ATOMS id type xs ys zs
1100 1 0.44893 0.308209 0.012056
63 1 0.0282165 0.451024 0.482569
503 1 0.0488907 0.330516 0.493195
274 1 0.11507 0.196189 0.48792
1553 1 0.446508 0.387057 0.0178652
1457 1 0.103653 0.0467452 0.106463
1243 1 0.212822 0.15605 0.126253
1160 1 0.491192 0.453442 0.339609
2016 1 0.0955072 0.298474 0.0364103
1694 1 0.0694759 0.0140253 0.317488
583 1 0.483827 0.164735 0.171536
477 1 0.471388 0.0964063 0.210505
1909 1 0.101432 0.131936 0.0416327
1171 1 0.191213 0.41291 0.0374266
1424 1 0.0491557 0.0531302 0.0481475
1758 1 0.225201 0.22427 0.0972654
723 1 0.473618 0.204372 0.279437
911 1 0.373101 0.00237902 0.00865069
543 1 0.085359 0.487013 0.35874
1893 1 0.0771859 0.219066 0.422753
1721 1 0.102479 0.391117 0.0604358
778 1 0.161514 0.340184 0.0761254
1356 1 0.189318 0.162918 0.0408464
168 1 0.34752 0.361688 0.0200587
283 1 0.21734 0.0279779 0.284204
1777 1 0.379096 0.483005 0.150925
303 1 0.49476 0.132554 0.407158
602 1 0.345902 0.487089 0.0648431
2038 1 0.337018 0.0466628 0.294204
28 1 0.0129177 0.0800462 0.147384
1473 1 0.413855 0.120818 0.169589
376 1 0.362026 0.00129378 0.20646
1344 1 0.0780497 0.117531 0.116669
1386 1 0.166739 0.0991142 0.0794432
1041 1 0.367923 0.0793167 0.36441
510 1 0.224038 0.239545 0.177701
1436 1 0.259714 0.0782488 0.00115312
717 1 0.243851 0.0500172 0.212574
1361 1 0.478825 0.284131 0.247062
584 1 0.262496 0.121647 0.0728212
1032 1 0.112517 0.085257 0.284039
1554 1 0.476907 0.0681388 0.452587
1093 1 0.311315 0.336417 0.0877189
418 1 0.0425832 0.249676 0.485584
969 1 0.00672586 0.120207 0.235033
1284 1 0.0820498 0.251972 0.0959094
1811 1 0.0504593 0.157383 0.466859
433 1 0.268987 0.379617 0.0243025
1918 1 0.275923 0.23151 0.0378775
788 1 0.306717 0.434201 0.121005
1962 1 0.273854 0.466455 0.416142
1435 1 0.0664067 0.445571 0.210213
414 1 0.37347 0.411037 0.0871475
995 1 0.0124365 0.379407 0.0774747
242 1 0.197329 0.325777 0.00647681
501 1 0.442695 0.224041 0.200705
851 1 0.435778 0.240799 0.0493455
497 1 0.0927206 0.135352 0.224701
124 1 0.444307 0.458399 0.401825
878 1 0.0120531 0.496548 0.333919
739 1 0.0643946 0.42911 0.410755
1014 1 0.351096 0.371047 0.354269
8 1 0.4786 0.406076 0.0859255
1046 1 0.375948 0.194456 0.137596
1545 1 0.327829 0.0636244 0.0604965
1026 1 0.0214312 0.288182 0.0546908
1236 1 0.238332 0.497775 0.170069
1180 1 0.175334 0.247852 0.0312917
247 1 0.278202 0.13362 0.164269
1608 1 0.0222164 0.195278 0.0677727
179 1 0.2077 0.311671 0.137973
1105 1 0.299085 0.18747 0.0949814
695 1 0.00151173 0.245297 0.210162
733 1 0.228294 0.0197321 0.36545
2001 1 0.365304 0.171899 0.0607383
1560 1 0.0858563 0.416158 0.13387
538 1 0.147298 0.246121 0.141855
1175 1 0.242264 0.295981 0.0647298
1181 1 0.37382 0.281521 0.0148144
1634 1 0.163122 0.400777 0.124496
1511 1 0.239309 0.382111 0.0989053
879 1 0.249085 0.333721 0.221667
567 1 0.300006 0.381185 0.180584
1658 1 0.43267 0.432295 0.172076
470 1 0.427509 0.408083 0.325975
906 1 0.288957 0.419182 0.348941
964 1 0.474384 0.113066 0.0419693
129 1 0.253864 0.458098 0.0689091
422 1 0.216487 0.427688 0.380289
536 1 0.132743 0.1736 0.105777
1737 1 0.216393 0.140184 0.215386
1469 1 0.296137 0.0584151 0.132445
29 1 0.428998 0.0148171 0.0783971
1530 1 0.409628 0.0946823 0.0855469
1066 1 0.270945 0.0715538 0.326548
1606 1 0.0890874 0.206697 0.189312
2003 1 0.0994664 0.289285 0.18725
1018 1 0.169113 0.279405 0.22867
787 1 0.339969 0.120548 0.117586
1524 1 0.13717 0.158786 0.292072
1575 1 0.157037 0.351346 0.374282
1458 1 0.294626 0.207191 0.186006
1519 1 0.275682 0.273529 0.126571
46 1 0.410717 0.316491 0.207015
486 1 0.351459 0.246686 0.0813771
1538 1 0.0709983 0.366179 0.191518
1031 1 0.193728 0.337254 0.308862
1255 1 0.376989 0.356612 0.145537
1625 1 0.267562 0.303447 0.450494
1535 1 0.220352 0.405402 0.183307
191 1 0.100936 0.0728545 0.180229
1360 1 0.308768 0.055418 0.438887
375 1 0.410141 0.279323 0.132908
2040 1 0.117485 0.0147469 0.0368975
1323 1 0.483423 0.147794 0.489504
1388 1 0.047897 0.303076 0.24718
1362 1 0.377689 0.0423322 0.137276
410 1 0.402313 0.467686 0.252967
1988 1 0.152301 0.129822 0.17063
1368 1 0.166766 0.200973 0.217219
233 1 0.107557 0.288926 0.335665
1814 1 0.313191 0.217701 0.343194
304 1 0.353113 0.155635 0.206816
625 1 0.0119228 0.247258 0.29293
704 1 0.288964 0.266738 0.23949
1389 1 0.403992 0.240016 0.371868
1946 1 0.376593 0.477054 0.341003
325 1 0.149718 0.358307 0.189354
635 1 0.355218 0.426783 0.407377
1508 1 0.0474931 0.378081 0.268075
1133 1 0.00337441 0.44293 0.142893
97 1 0.12009 0.34425 0.28437
1007 1 0.326584 0.339038 0.240149
2012 1 0.34498 0.42333 0.287745
1868 1 0.178746 0.0197098 0.0930453
1505 1 0.38997 0.44373 0.480276
141 1 0.175283 0.0208243 0.488869
697 1 0.461122 0.356002 0.157957
927 1 0.164323 0.0745991 0.226809
1753 1 0.204939 0.43141 0.45888
374 1 0.0891414 0.217201 0.0262896
1454 1 0.488598 0.472566 0.0375765
575 1 0.231667 0.0443715 0.441026
1853 1 0.404306 0.0708563 0.230111
1712 1 0.130522 0.472654 0.0631508
1230 1 0.0462863 0.133779 0.3216
1199 1 0.172653 0.250139 0.300835
1227 1 0.309731 0.138956 0.333188
240 1 0.331886 0.0794402 0.198491
688 1 0.411609 0.0769301 0.00200535
532 1 0.247775 0.198503 0.26548
2030 1 0.111092 0.099489 0.365934
1378 1 0.201154 0.267418 0.375445
730 1 0.426793 0.149732 0.240687
1529 1 0.248435 0.270423 0.305375
992 1 0.373129 0.229353 0.227987
59 1 0.341535 0.284363 0.175228
516 1 0.0346749 0.31844 0.329089
2015 1 0.42588 0.471684 0.0912321
1148 1 0.0816316 0.379398 0.341884
795 1 0.449287 0.0762068 0.301412
1279 1 0.320053 0.457361 0.207207
1756 1 0.479569 0.241382 0.346597
678 1 0.0730563 0.447339 0.29275
260 1 0.0895717 0.491939 0.134368
917 1 0.418166 0.339338 0.0799468
949 1 0.486858 0.470823 0.222068
1345 1 0.142646 0.427762 0.418325
1807 1 0.0272843 0.15607 0.392205
572 1 0.156115 0.0425251 0.412617
243 1 0.413324 0.265515 0.29748
1058 1 0.420802 0.369173 0.43168
918 1 0.288289 0.157577 0.405195
481 1 0.370994 0.116349 0.28068
922 1 0.390372 0.0374225 0.433509
920 1 0.439605 0.0249987 0.18146
1686 1 0.107818 0.243453 0.259129
12 1 0.401032 0.192081 0.304957
84 1 0.468714 0.419286 0.467751
60 1 0.150549 0.18045 0.370674
420 1 0.27275 0.35195 0.302242
677 1 0.268744 0.236306 0.409105
407 1 0.198902 0.355166 0.44583
1959 1 0.336413 0.289059 0.304984
1503 1 0.40569 0.319668 0.363045
1861 1 0.013342 0.318976 0.151389
57 1 0.238434 0.338892 0.378319
1936 1 0.373458 0.435684 0.0121848
91 1 0.149749 0.430378 0.320056
365 1 0.446395 0.0667608 0.381377
905 1 0.371068 0.402104 0.214904
655 1 0.453887 0.388126 0.241392
171 1 0.207683 0.0751676 0.14399
397 1 0.0266689 0.497291 0.253205
1195 1 0.207628 0.482357 0.24026
362 1 0.258382 0.113897 0.469955
1939 1 0.426681 0.00204526 0.339023
1369 1 0.189164 0.48432 0.114454
1794 1 0.145764 0.464108 0.18302
69 1 0.206069 0.126239 0.303494
446 1 0.274207 0.11659 0.264534
1735 1 0.42134 0.127085 0.441099
988 1 0.0183863 0.0775649 0.38073
1746 1 0.0703713 0.209104 0.323698
1882 1 0.190197 0.244386 0.453536
2039 1 0.474779 0.230519 0.132973
393 1 0.45826 0.15011 0.341288
639 1 0.450853 0.278284 0.435256
1829 1 0.0502416 0.355871 0.0107359
145 1 0.0504511 0.308461 0.421844
1145 1 0.22245 0.199918 0.342817
1631 1 0.241186 0.487021 0.312222
189 1 0.108189 0.357954 0.448471
1324 1 0.14802 0.0241214 0.332412
344 1 0.484816 0.085497 0.134463
108 1 0.212698 0.39747 0.258927
1477 1 0.304349 0.298164 0.374421
1617 1 0.395714 0.349738 0.277837
1440 1 0.271787 0.388361 0.430843
1848 1 0.479167 0.377707 0.383887
819 1 0.318443 0.0198025 0.371456
1189 1 0.448176 0.171486 0.0895117
690 1 0.0806179 0.0679244 0.432072
1649 1 0.0981652 0.334257 0.118703
449 1 0.0502123 0.0555618 0.244648
1860 1 0.342109 0.137035 0.469481
1768 1 0.467062 0.201983 0.425658
1971 1 0.0437976 0.462383 0.069286
2014 1 0.387491 0.198345 0.446596
846 1 0.20513 0.103362 0.381889
924 1 0.122828 0.14164 0.433961
956 1 0.350764 0.268634 0.438922
1342 1 0.12444 0.46688 0.488375
900 1 0.201023 0.162911 0.432607
1122 1 0.372103 0.154076 0.380342
423 1 0.122329 0.284075 0.424833
1512 1 0.132326 0.418051 0.243392
961 1 0.245289 0.048604 0.0754356
68 1 0.48579 0.189914 0.01855
1955 1 0.496264 0.0353098 0.257485
641 1 0.0439028 0.184281 0.257263
1109 1 0.479893 0.354999 0.310218
137 1 0.305797 0.434552 0.488179
591 1 0.0299104 0.161182 0.166022
1978 1 0.327355 0.18845 0.274448
1708 1 0.260687 0.200518 0.483529
237 1 0.0203333 0.248354 0.374772
806 1 0.176869 0.104302 0.478933
244 1 0.339375 0.345834 0.43104
98 1 0.498547 0.33587 0.443573
435 1 0.309725 0.492043 0.284214
1544 1 0.191223 0.0443632 0.0176151
1202 1 0.16448 0.0163894 0.174471
280 1 0.0304847 0.00227834 0.110732
309 1 0.370357 0.359821 0.497955
1618 1 0.468794 0.137165 0.673137
743 1 0.141776 0.470851 0.984522
122 1 0.0567777 0.347658 0.570911
1466 1 0.430496 0.474413 0.984812
432 1 0.0172568 0.232488 0.673424
636 1 0.192262 0.116004 0.976085
225 1 0.108474 0.0845324 0.501552
820 1 0.159355 0.137215 0.579548
1061 1 0.196183 0.180475 0.519908
1446 1 0.144816 0.375491 0.982368
1916 1 0.0441644 0.33103 0.785275
772 1 0.280879 0.0349734 0.865857
1209 1 0.146726 0.0146894 0.956775
1706 1 0.311603 0.246021 0.573763
855 1 0.391104 0.243429 0.584536
1083 1 0.0125107 0.216586 0.594152
1585 1 0.192427 0.0901769 0.633294
313 1 0.191797 0.49407 0.511213
1206 1 0.46129 0.277604 0.566785
1669 1 0.225249 0.401372 0.962151
1299 1 0.032364 0.07486 0.927043
2005 1 0.0775232 0.211872 0.943882
1562 1 0.160291 0.227289 0.639422
667 1 0.0545757 0.252878 0.749085
913 1 0.46706 0.354159 0.523203
1276 1 0.118539 0.427266 0.56708
1733 1 0.329505 0.412335 0.778269
300 1 0.462262 0.113504 0.953411
893 1 0.228863 0.113136 0.550466
489 1 0.259331 0.37158 0.518022
1179 1 0.230425 0.032276 0.55594
424 1 0.155496 0.233169 0.565733
382 1 0.175753 0.387741 0.623121
1594 1 0.023406 0.479629 0.693782
1787 1 0.115098 0.0690947 0.626412
665 1 0.379305 0.118977 0.925158
1157 1 0.467725 0.421976 0.941096
314 1 0.214482 0.156474 0.680607
967 1 0.236669 0.183785 0.586064
722 1 0.0412242 0.147613 0.997096
462 1 0.175341 0.447812 0.907358
627 1 0.451845 0.190468 0.576988
1088 1 0.152192 0.327016 0.576352
838 1 0.0288793 0.127499 0.624412
1372 1 0.338647 0.220522 0.502726
798 1 0.313361 0.311648 0.52483
146 1 0.431587 0.29323 0.641141
187 1 0.2421 0.322521 0.68724
1380 1 0.0872542 0.494357 0.609284
1174 1 0.360664 0.0923826 0.573883
1333 1 0.204334 0.415895 0.555911
1081 1 0.182895 0.014596 0.61802
534 1 0.149276 0.401747 0.701551
980 1 0.434448 0.389676 0.868832
1921 1 0.278674 0.463374 0.551157
551 1 0.32982 0.454494 0.622158
223 1 0.218341 0.276163 0.532319
908 1 0.40751 0.384194 0.568007
899 1 0.405797 0.289104 0.513558
1229 1 0.382372 0.145397 0.840823
599 1 0.216846 0.0162146 0.70891
1092 1 0.285326 0.097661 0.601283
1080 1 0.306512 0.023844 0.940517
1192 1 0.00185157 0.0273756 0.696767
1699 1 0.282136 0.231795 0.647068
1327 1 0.349959 0.053701 0.642327
1922 1 0.0945973 0.119027 0.830258
1246 1 0.08244 0.207323 0.560685
392 1 0.217206 0.279734 0.624915
2023 1 0.147396 0.266802 0.732968
1384 1 0.379733 0.169828 0.600478
1420 1 0.360411 0.233215 0.663147
1854 1 0.353369 0.32255 0.589248
1891 1 0.436312 0.204805 0.654246
322 1 0.0900617 0.270102 0.675863
436 1 0.166471 0.375147 0.76842
1289 1 0.235315 0.340621 0.585543
719 1 0.349096 0.450586 0.93415
224 1 0.322364 0.398706 0.562192
370 1 0.443949 0.375741 0.660834
386 1 0.0234559 0.299527 0.625862
954 1 0.330966 0.462501 0.701652
1144 1 0.164852 0.469365 0.660006
1899 1 0.138777 0.174683 0.979888
1892 1 0.329088 0.209883 0.865037
1802 1 0.494882 0.450988 0.869794
643 1 0.461345 0.443877 0.714298
403 1 0.402341 0.44252 0.660903
133 1 0.257497 0.0899343 0.696914
856 1 0.45068 0.175786 0.885799
926 1 0.137306 0.0254557 0.705655
205 1 0.372564 0.183191 0.726614
1602 1 0.0165716 0.130251 0.835432
1297 1 0.176281 0.164812 0.754724
1640 1 0.392054 0.118046 0.673758
829 1 0.100205 0.418733 0.924661
509 1 0.0879777 0.180688 0.634891
1647 1 0.109117 0.19705 0.725272
1539 1 0.307568 0.3134 0.646447
884 1 0.00165058 0.15178 0.931254
1972 1 0.0150333 0.358154 0.926558
1497 1 0.308236 0.378496 0.712402
776 1 0.442207 0.316758 0.714418
1252 1 0.279114 0.387278 0.634644
683 1 0.356251 0.376054 0.649636
1819 1 0.295964 0.0721196 0.523408
748 1 0.101814 0.333086 0.729822
1963 1 0.0809748 0.345367 0.654382
479 1 0.276724 0.0302096 0.648129
1514 1 0.441387 0.117129 0.600661
535 1 0.0957425 0.426863 0.644835
394 1 0.0074626 0.216418 0.991848
1000 1 0.00348519 0.163468 0.530624
387 1 0.353185 0.42792 0.857793
1493 1 0.0178998 0.387898 0.646975
1241 1 0.156054 0.381581 0.869215
324 1 0.329451 0.197841 0.992213
709 1 0.0724121 0.186929 0.865233
315 1 0.0524777 0.428536 0.866328
847 1 0.429007 0.0894816 0.876123
1522 1 0.122717 0.282833 0.882789
1114 1 0.393972 0.460033 0.763892
587 1 0.497384 0.37232 0.738484
1228 1 0.183236 0.0875097 0.733642
794 1 0.381066 0.049809 0.730325
1831 1 0.260841 0.159082 0.998733
1980 1 0.139743 0.134287 0.678475
592 1 0.279947 0.178603 0.717475
74 1 0.413673 0.245136 0.721714
20 1 0.456571 0.193432 0.772865
1818 1 0.188798 0.164279 0.83505
1124 1 0.242214 0.19672 0.786284
1091 1 0.363541 0.303156 0.703122
978 1 0.0420906 0.186056 0.78514
1919 1 0.316538 0.32097 0.766226
947 1 0.397455 0.00415258 0.867378
617 1 0.10379 0.391268 0.808793
1778 1 0.0471207 0.157089 0.69881
377 1 0.425352 0.040919 0.637829
1391 1 0.173873 0.462331 0.746225
1210 1 0.288613 0.457662 0.828514
1886 1 0.0687374 0.438703 0.994952
267 1 0.225582 0.415157 0.690374
1855 1 0.395436 0.378246 0.735297
227 1 0.00137589 0.28073 0.549269
215 1 0.100187 0.0495697 0.780493
339 1 0.210657 0.179924 0.938323
1932 1 0.32015 0.0227952 0.578199
990 1 0.474476 0.422321 0.592201
390 1 0.476359 0.0474355 0.727808
222 1 0.331814 0.118526 0.74131
1427 1 0.432883 0.0923757 0.513461
1155 1 0.0696077 0.0612143 0.691122
931 1 0.240928 0.102584 0.850096
1953 1 0.436618 0.329315 0.92351
1568 1 0.23567 0.0441566 0.797155
860 1 0.473585 0.112222 0.815797
1875 1 0.263674 0.0945935 0.925786
199 1 0.325098 0.151195 0.656349
934 1 0.421758 0.126961 0.743853
1943 1 0.215189 0.231148 0.702562
1809 1 0.433377 0.289904 0.785454
492 1 0.110422 0.123521 0.752475
3 1 0.073075 0.262349 0.82513
1247 1 0.21539 0.297326 0.758479
1234 1 0.248064 0.372756 0.77848
668 1 0.0221967 0.434388 0.570866
1134 1 0.213096 0.321467 0.842049
1125 1 0.377958 0.359808 0.817654
735 1 0.286371 0.255901 0.742971
419 1 0.413009 0.464743 0.895334
1095 1 0.203475 0.424409 0.815228
1501 1 0.0162607 0.293351 0.976966
1741 1 0.239587 0.498002 0.683927
305 1 0.298836 0.361212 0.838229
1076 1 0.0720823 0.397457 0.513892
1815 1 0.456519 0.420122 0.794874
1044 1 0.44741 0.0206917 0.566862
866 1 0.159368 0.104765 0.905786
1652 1 0.37701 0.456095 0.557732
828 1 0.332203 0.212684 0.788252
1308 1 0.161135 0.0875435 0.815891
447 1 0.447902 0.224904 0.504512
114 1 0.313679 0.0634398 0.802301
1960 1 0.156846 0.311455 0.6712
1675 1 0.241235 0.118095 0.771577
1788 1 0.353669 0.282639 0.835976
613 1 0.275477 0.264008 0.830122
699 1 0.377405 0.0294865 0.520968
1208 1 0.143033 0.190384 0.896272
1599 1 0.130838 0.312966 0.803673
747 1 0.486778 0.348282 0.827065
1766 1 0.446367 0.275939 0.871404
286 1 0.374268 0.20119 0.928914
1690 1 0.153442 0.374513 0.509486
1339 1 0.307135 0.159264 0.549231
817 1 0.27184 0.452669 0.917797
2022 1 0.269722 0.45674 0.750143
2037 1 0.44313 0.250466 0.95818
1499 1 0.0333658 0.392449 0.720955
1456 1 0.204216 0.253912 0.892516
250 1 0.0354173 0.0936719 0.758587
1320 1 0.303314 0.0194315 0.732555
2027 1 0.0860379 0.460264 0.759243
1570 1 0.107179 0.0436349 0.893706
1239 1 0.27819 0.314817 0.898952
333 1 0.495478 0.223728 0.701773
1073 1 0.0347148 0.0536946 0.517467
1830 1 0.324157 0.10213 0.873624
1920 1 0.200577 0.0383955 0.868558
380 1 0.0915882 0.133783 0.931382
44 1 0.303154 0.144395 0.808375
619 1 0.402827 0.223888 0.824241
1408 1 0.0926448 0.326357 0.945605
910 1 0.187731 0.24015 0.819222
125 1 0.465883 0.472031 0.533909
21 1 0.125318 0.200409 0.807688
343 1 0.255218 0.179417 0.870152
861 1 0.496887 0.345681 0.601048
395 1 0.044382 0.274862 0.902792
703 1 0.150284 0.251271 0.948346
1800 1 0.302375 0.287194 0.977155
550 1 0.35481 0.347019 0.889369
495 1 0.0968067 0.275255 0.599631
1738 1 0.391065 0.0646382 0.807416
1842 1 0.39697 0.161187 0.522839
1598 1 0.0679004 0.344547 0.869827
873 1 0.200489 0.326368 0.925634
48 1 0.301008 0.375958 0.954812
1906 1 0.0833876 0.127285 0.561906
1543 1 0.235631 0.384253 0.886412
1605 1 0.388971 0.383605 0.950632
746 1 0.132866 0.460587 0.832759
1348 1 0.15572 0.0611038 0.558322
1717 1 0.228116 0.25675 0.979291
720 1 0.462369 0.03697 0.926734
2002 1 0.368195 0.279556 0.932264
1951 1 0.382739 0.0360206 0.938722
782 1 0.280249 0.236229 0.920415
427 1 0.032495 0.0389183 0.62416
18 1 0.0906065 0.0746475 0.983852
1660 1 0.305377 0.163053 0.925815
698 1 0.345788 0.114363 0.994394
1198 1 0.236633 0.451852 0.620584
885 1 0.23099 0.0235825 0.944049
295 1 0.0922973 0.00480327 0.570432
1715 1 0.163649 0.00788771 0.790993
1103 1 0.221006 0.481979 0.972107
1558 1 0.0414043 0.0562479 0.846812
833 1 0.0225194 0.412584 0.795859
1983 1 0.29855 0.45896 0.994802
425 1 0.412738 0.166029 0.986772
444 1 0.480682 0.497985 0.806325
1724 1 0.0564952 0.49896 0.82736
2025 1 0.207837 0.49815 0.853416
1942 1 0.458295 0.00603976 0.998222
1312 1 0.141713 0.284176 0.501002
2036 1 0.106719 0.716611 0.354692
1827 1 0.226263 0.550879 0.0982817
654 1 0.381364 0.502289 0.429074
1549 1 0.443988 0.988664 0.487236
1714 1 0.177913 0.75329 0.0239486
626 1 0.112098 0.882057 0.0339468
485 1 0.327388 0.603885 0.155714
822 1 0.189371 0.558731 0.269365
1533 1 0.262811 0.638058 0.0950564
32 1 0.372224 0.807033 0.0258292
1572 1 0.0527531 0.914125 0.293881
1678 1 0.0682696 0.689313 0.0789608
275 1 0.166578 0.81519 0.0742793
2032 1 0.238067 0.781473 0.0826928
142 1 0.0769718 0.761353 0.0519956
1461 1 0.212151 0.619923 0.226348
542 1 0.290766 0.724668 0.0939752
95 1 0.490279 0.876549 0.248601
1727 1 0.493272 0.94989 0.278525
25 1 0.0711679 0.60938 0.353376
685 1 0.32969 0.585419 0.0643034
2041 1 0.445007 0.782199 0.00891777
1765 1 0.494829 0.520203 0.378841
557 1 0.302309 0.758702 0.0204921
1120 1 0.109016 0.963776 0.126416
1713 1 0.22166 0.947327 0.482954
1757 1 0.227308 0.808307 0.464817
1108 1 0.349779 0.753712 0.311045
1773 1 0.111477 0.784367 0.477837
1774 1 0.00514466 0.650023 0.479166
482 1 0.294191 0.990259 0.248934
1612 1 0.043018 0.702584 0.00202125
364 1 0.426476 0.995139 0.251096
318 1 0.417478 0.812438 0.424516
1438 1 0.289264 0.996995 0.0111537
1785 1 0.458227 0.58276 0.138125
1197 1 0.33676 0.609421 0.238926
1451 1 0.449554 0.942994 0.185852
35 1 0.383688 0.579592 0.477217
1869 1 0.147415 0.552858 0.0927311
1991 1 0.0735671 0.740997 0.146278
759 1 0.19892 0.873346 0.22444
1118 1 0.454045 0.587121 0.0599689
1808 1 0.022363 0.971756 0.246924
1411 1 0.0200871 0.786491 0.104155
687 1 0.307018 0.537162 0.219452
1692 1 0.144905 0.941433 0.461926
265 1 0.468052 0.93269 0.353221
307 1 0.235705 0.966957 0.0802868
1616 1 0.30126 0.850358 0.0438667
659 1 0.287087 0.923582 0.0436637
1211 1 0.415851 0.817137 0.107013
1300 1 0.114237 0.565519 0.40201
1704 1 0.0399564 0.810044 0.499917
388 1 0.409017 0.882589 0.153552
17 1 0.0401116 0.606729 0.248476
1944 1 0.079961 0.837489 0.343213
491 1 0.453006 0.892873 0.0928498
147 1 0.446539 0.510161 0.297306
725 1 0.496368 0.629579 0.193567
1581 1 0.32886 0.988873 0.0826297
1569 1 0.0500492 0.561985 0.0657775
1540 1 0.489922 0.817163 0.0746055
288 1 0.278148 0.648563 0.280685
1559 1 0.254208 0.576577 0.172697
212 1 0.265825 0.677797 0.159358
34 1 0.423107 0.693734 0.120615
1900 1 0.215212 0.782421 0.158072
862 1 0.368153 0.750149 0.129793
705 1 0.373641 0.753826 0.234352
456 1 0.00916577 0.771623 0.231317
1999 1 0.149712 0.734729 0.277399
88 1 0.141281 0.745681 0.103043
715 1 0.0690388 0.836337 0.257962
2045 1 0.197436 0.970959 0.229548
1615 1 0.154885 0.945512 0.0629389
207 1 0.20844 0.889016 0.0603104
41 1 0.204591 0.705686 0.118053
1888 1 0.135879 0.883653 0.109857
1373 1 0.184546 0.935743 0.139712
1614 1 0.43972 0.795608 0.180958
118 1 0.166471 0.638742 0.456627
1845 1 0.375131 0.543117 0.280769
1027 1 0.397074 0.961535 0.128498
633 1 0.130634 0.50078 0.293814
1359 1 0.00470733 0.996086 0.357489
1400 1 0.472508 0.682045 0.450651
1521 1 0.0398733 0.744151 0.370275
761 1 0.282432 0.891787 0.443047
1011 1 0.224956 0.605558 0.331348
107 1 0.486419 0.685841 0.253314
1506 1 0.165349 0.667795 0.3215
1864 1 0.118821 0.600882 0.166175
837 1 0.428336 0.629383 0.253275
1656 1 0.0890996 0.671438 0.291077
1328 1 0.191523 0.629491 0.150794
865 1 0.341934 0.690872 0.186381
1132 1 0.0230406 0.6696 0.403546
1075 1 0.101942 0.614179 0.0762931
1729 1 0.14503 0.588412 0.332527
245 1 0.40769 0.634718 0.174354
1152 1 0.143018 0.771597 0.193096
379 1 0.123024 0.848335 0.178264
914 1 0.27609 0.836946 0.173172
1755 1 0.488163 0.757592 0.228733
1790 1 0.055443 0.909717 0.194159
786 1 0.203036 0.857333 0.142182
880 1 0.298372 0.749683 0.17034
593 1 0.128128 0.941959 0.201808
1104 1 0.0052277 0.872817 0.239201
1463 1 0.425196 0.618028 0.420156
290 1 0.466115 0.666912 0.0563069
90 1 0.0457646 0.568927 0.174154
1153 1 0.266425 0.899043 0.115912
2017 1 0.351157 0.879126 0.0999786
1163 1 0.107259 0.519602 0.214983
282 1 0.0124634 0.85963 0.147025
1498 1 0.464135 0.80898 0.283373
1970 1 0.415539 0.728705 0.416341
1167 1 0.373859 0.730431 0.0542002
1902 1 0.492449 0.638668 0.384889
902 1 0.465918 0.561042 0.224599
1627 1 0.120052 0.599986 0.253156
271 1 0.342273 0.657221 0.0977191
496 1 0.225536 0.712456 0.289322
579 1 0.425895 0.705134 0.197405
49 1 0.190041 0.678741 0.392448
1278 1 0.31471 0.804275 0.258133
335 1 0.027996 0.748427 0.450874
1871 1 0.141571 0.791599 0.338478
396 1 0.210836 0.711621 0.216859
561 1 0.297343 0.727785 0.255506
1956 1 0.245385 0.684151 0.475181
984 1 0.123473 0.895681 0.26223
791 1 0.360003 0.821486 0.16447
710 1 0.394653 0.922714 0.378094
1428 1 0.236483 0.802995 0.247919
1254 1 0.308155 0.806877 0.104119
1262 1 0.47516 0.857146 0.492871
1106 1 0.246271 0.59752 0.0191403
117 1 0.265165 0.923588 0.224242
1518 1 0.0551489 0.809352 0.183724
1974 1 0.0162642 0.676209 0.324989
248 1 0.313937 0.669777 0.0308278
1267 1 0.417335 0.776823 0.352756
181 1 0.283487 0.997228 0.490322
236 1 0.363462 0.67448 0.2832
1674 1 0.340183 0.753142 0.404891
429 1 0.387422 0.642906 0.0378406
985 1 0.146151 0.661954 0.207309
1371 1 0.265525 0.609689 0.426149
1422 1 0.42246 0.66673 0.333503
1796 1 0.22834 0.692952 0.0451637
475 1 0.0593455 0.650902 0.185568
890 1 0.200528 0.747983 0.36266
1567 1 0.300798 0.618095 0.350285
1013 1 0.0773721 0.802182 0.410434
932 1 0.165474 0.719417 0.484567
1072 1 0.255508 0.694733 0.356643
1795 1 0.294593 0.845278 0.347749
986 1 0.00291435 0.701663 0.145947
162 1 0.0664865 0.912218 0.394012
1187 1 0.113474 0.950482 0.322729
522 1 0.269997 0.867148 0.276241
1645 1 0.339283 0.894965 0.300236
1847 1 0.327474 0.881693 0.217816
1637 1 0.34821 0.969097 0.316995
858 1 0.461937 0.510671 0.163636
413 1 0.0841395 0.99333 0.403013
1852 1 0.0914132 0.719901 0.221139
1159 1 0.265958 0.954286 0.313565
160 1 0.395805 0.542712 0.200695
1915 1 0.382224 0.547034 0.104611
372 1 0.368696 0.669391 0.465601
1889 1 0.385022 0.930888 0.234869
1074 1 0.470241 0.746961 0.0801887
1725 1 0.363145 0.891369 0.452419
836 1 0.345445 0.684849 0.360907
1062 1 0.0674612 0.549023 0.299014
1358 1 0.0914314 0.69922 0.466149
437 1 0.251852 0.528836 0.374331
944 1 0.192233 0.581707 0.395821
358 1 0.309291 0.540361 0.439814
1697 1 0.481168 0.714942 0.357553
80 1 0.431486 0.732951 0.291302
30 1 0.303814 0.687347 0.428258
329 1 0.14476 0.686915 0.0523733
1813 1 0.144357 0.813785 0.256541
1670 1 0.191311 0.938258 0.298217
1237 1 0.387949 0.820725 0.299568
1146 1 0.22917 0.90292 0.375928
645 1 0.453876 0.858191 0.364671
1082 1 0.122836 0.863558 0.446972
1366 1 0.167052 0.967124 0.38091
1874 1 0.314853 0.911703 0.374625
500 1 0.398353 0.850767 0.227301
1987 1 0.435307 0.917383 0.447778
499 1 0.445349 0.860813 0.0201594
1982 1 0.331515 0.935722 0.162024
1771 1 0.420196 0.54347 0.369479
216 1 0.0890568 0.612642 0.457348
1238 1 0.0124698 0.634885 0.105472
1908 1 0.14174 0.538551 0.468263
148 1 0.462625 0.591575 0.316344
1579 1 0.207358 0.581116 0.485312
153 1 0.374227 0.604396 0.326278
1726 1 0.190506 0.523085 0.0332974
1079 1 0.115492 0.655791 0.397819
745 1 0.454055 0.76302 0.477376
1556 1 0.259272 0.760468 0.409162
102 1 0.15928 0.790854 0.418292
1528 1 0.19536 0.857507 0.30199
1347 1 0.225152 0.823331 0.374877
1596 1 0.199566 0.877901 0.442575
285 1 0.367463 0.850048 0.372332
1527 1 0.375681 0.772708 0.480882
1265 1 0.148218 0.891841 0.376351
1624 1 0.316016 0.815816 0.441311
1610 1 0.275837 0.773702 0.333706
445 1 0.0582627 0.901067 0.104181
976 1 0.0707737 0.95124 0.0379715
483 1 0.183814 0.619262 0.0693718
50 1 0.0596659 0.916533 0.471849
1406 1 0.0433878 0.838768 0.0526604
158 1 0.421901 0.904466 0.299938
1954 1 0.0989254 0.99867 0.487511
1834 1 0.496622 0.928578 0.0280175
70 1 0.265446 0.971417 0.412511
942 1 0.0235814 0.695611 0.247505
1305 1 0.178124 0.55281 0.181
39 1 0.0229661 0.575401 0.401712
854 1 0.284356 0.569191 0.287911
150 1 0.472418 0.998155 0.409842
1274 1 0.483253 0.979542 0.127784
10 1 0.361379 0.903621 0.0107184
1837 1 0.441206 0.520299 0.476267
238 1 0.342533 0.966769 0.428166
612 1 0.401041 0.546745 0.0171688
101 1 0.0665218 0.773024 0.302954
1346 1 0.34503 0.60426 0.414527
1022 1 0.120693 0.677027 0.135164
1222 1 0.0958743 0.812042 0.11478
1286 1 0.420569 0.94624 0.0404531
615 1 0.0781931 0.513328 0.0185483
1275 1 0.302479 0.528314 0.129218
1897 1 0.328443 0.535914 0.361219
13 1 0.0170893 0.855535 0.41656
297 1 0.169094 0.500685 0.362663
65 1 0.2791 0.525947 0.0367002
327 1 0.00701757 0.826341 0.31159
814 1 0.0569085 0.506359 0.429639
527 1 0.248171 0.983978 0.167123
1566 1 0.214023 0.51741 0.440435
907 1 0.238657 0.812069 0.00192216
1865 1 0.450752 0.611871 0.495578
1294 1 0.066973 0.997909 0.184535
600 1 0.126753 0.997066 0.263682
1059 1 0.369375 0.951758 0.500415
909 1 0.0898901 0.638633 0.00381889
664 1 0.42728 0.984999 0.702418
246 1 0.293343 0.540109 0.645875
975 1 0.292605 0.682334 0.57052
451 1 0.0167552 0.873059 0.896937
261 1 0.427737 0.66424 0.640119
1913 1 0.0713314 0.912088 0.770761
312 1 0.190311 0.618409 0.604086
1225 1 0.0415991 0.796345 0.583074
1401 1 0.131852 0.724511 0.785733
105 1 0.206684 0.958863 0.99039
75 1 0.413895 0.708887 0.521203
94 1 0.0808304 0.569697 0.751133
1033 1 0.042873 0.734845 0.529305
1290 1 0.310134 0.91945 0.619901
1056 1 0.486489 0.508518 0.600933
844 1 0.326551 0.847073 0.512416
1884 1 0.110922 0.810653 0.996955
732 1 0.425241 0.848951 0.597602
1565 1 0.234655 0.638371 0.542905
1873 1 0.0631478 0.989788 0.968432
810 1 0.482765 0.846398 0.736049
1183 1 0.0678851 0.867564 0.965544
737 1 0.487626 0.556261 0.534852
136 1 0.407183 0.550124 0.547372
402 1 0.23122 0.944052 0.750157
1510 1 0.43564 0.63048 0.774915
877 1 0.030909 0.989311 0.896768
999 1 0.0444655 0.7899 0.967236
1653 1 0.224381 0.528237 0.603328
201 1 0.140321 0.956638 0.733061
1976 1 0.256834 0.537456 0.904188
616 1 0.0643531 0.585274 0.578291
1516 1 0.306271 0.831671 0.583316
1998 1 0.268629 0.736321 0.681435
366 1 0.403081 0.504805 0.831936
1483 1 0.333878 0.714348 0.512062
702 1 0.180164 0.657332 0.987846
316 1 0.439274 0.641888 0.857102
712 1 0.279254 0.758197 0.594225
58 1 0.401643 0.509829 0.613879
769 1 0.197694 0.810183 0.592564
1705 1 0.254884 0.816506 0.650014
1698 1 0.358289 0.729742 0.685254
754 1 0.483591 0.62747 0.998841
1053 1 0.0980659 0.506233 0.698661
1336 1 0.0445581 0.861508 0.627798
830 1 0.108815 0.841097 0.897736
693 1 0.245286 0.877206 0.6029
1947 1 0.404537 0.844257 0.51778
973 1 0.0210301 0.794369 0.887559
1334 1 0.144029 0.880175 0.748027
859 1 0.142991 0.582526 0.53307
952 1 0.358063 0.901238 0.55797
1121 1 0.385478 0.972262 0.580299
1002 1 0.0618841 0.620961 0.690804
1001 1 0.20181 0.658733 0.716401
1273 1 0.32119 0.616403 0.702886
1460 1 0.169515 0.862678 0.984353
1937 1 0.102781 0.738764 0.970658
119 1 0.346652 0.65664 0.637759
1063 1 0.284664 0.917246 0.532037
1224 1 0.130613 0.695534 0.676993
734 1 0.0623078 0.743941 0.75731
1840 1 0.189773 0.763888 0.658046
1742 1 0.387056 0.714048 0.596761
770 1 0.420474 0.768287 0.64703
915 1 0.103245 0.77616 0.700571
310 1 0.243423 0.80171 0.724313
1257 1 0.466274 0.791373 0.548881
1990 1 0.0393687 0.926235 0.843008
460 1 0.113854 0.762223 0.555689
1357 1 0.109928 0.818115 0.625561
1038 1 0.250777 0.884065 0.704694
421 1 0.13804 0.92574 0.654812
1403 1 0.181122 0.84228 0.680665
565 1 0.388381 0.913494 0.629323
1659 1 0.447833 0.517368 0.67696
2008 1 0.323191 0.871078 0.67846
26 1 0.499986 0.715136 0.833766
515 1 0.167248 0.886285 0.59496
472 1 0.180469 0.889113 0.517375
416 1 0.353376 0.708007 0.768836
1630 1 0.440568 0.709029 0.780824
1154 1 0.0698101 0.930328 0.617199
1326 1 0.485215 0.57714 0.801006
1322 1 0.139447 0.61395 0.676711
1728 1 0.243233 0.596454 0.689304
916 1 0.0919658 0.664512 0.748569
981 1 0.315627 0.593585 0.908593
163 1 0.358901 0.6318 0.801266
381 1 0.38421 0.661407 0.714057
1107 1 0.20922 0.733735 0.738234
1270 1 0.293787 0.644678 0.843865
744 1 0.197008 0.64602 0.807726
724 1 0.388544 0.730377 0.838138
438 1 0.097066 0.856949 0.692844
656 1 0.346796 0.794443 0.724366
321 1 0.0196773 0.619048 0.94091
1621 1 0.0832125 0.72111 0.620954
805 1 0.397257 0.840287 0.67207
1515 1 0.238161 0.93244 0.914176
642 1 0.165031 0.796322 0.760916
1051 1 0.215084 0.862116 0.779706
1485 1 0.334564 0.795935 0.642548
2047 1 0.244866 0.845284 0.532246
721 1 0.285504 0.774988 0.514512
452 1 0.214858 0.945728 0.670771
277 1 0.424702 0.596626 0.689073
1695 1 0.444987 0.983832 0.802909
480 1 0.016494 0.570573 0.813095
813 1 0.248775 0.890994 0.982685
1150 1 0.294836 0.543446 0.725942
1532 1 0.41089 0.542964 0.758353
1266 1 0.0656754 0.712343 0.836