ITEM: TIMESTEP
100000
ITEM: NUMBER OF ATOMS
2048
ITEM: BOX BOUNDS pp pp pp
0.0000000000000000e+00 1.1093780389610155e+01
0.0000000000000000e+00 1.1093780389610155e+01
0.0000000000000000e+00 1.1093780389610155e+01
ITEM: ATOMS id type xs ys zs
589 1 0.371068 0.497395 0.125819
8 1 0.127469 0.0651751 0.0625702
41 1 0.247766 0.247561 0.00199363
1156 1 0.497949 0.0646254 0.314368
12 1 0.249676 0.062288 0.0584487
31 1 0.43871 0.121124 0.0594913
145 1 0.00203599 0.124806 0.252475
23 1 0.192675 0.124633 0.0659429
27 1 0.313031 0.124029 0.0599178
32 1 0.377987 0.181243 0.0607095
294 1 0.18458 0.310616 0.500875
39 1 0.186595 0.251249 0.0663651
43 1 0.310134 0.246634 0.061182
517 1 0.124315 0.497872 0.00215238
52 1 0.00250146 0.436197 0.0587761
40 1 0.123135 0.313105 0.0654148
649 1 0.253643 0.498001 0.249471
48 1 0.378478 0.315645 0.0622647
47 1 0.440045 0.252177 0.0629194
51 1 0.0605473 0.370761 0.0593131
317 1 0.374284 0.375996 0.500618
44 1 0.250783 0.313913 0.0638759
55 1 0.185102 0.376532 0.0631434
523 1 0.314323 0.500661 0.062186
587 1 0.312633 0.496844 0.182514
59 1 0.309112 0.37176 0.0614664
527 1 0.435676 0.4988 0.0629092
1153 1 0.499697 0.00182993 0.253816
715 1 0.31395 0.497295 0.437731
1140 1 0.494875 0.435043 0.188342
60 1 0.24924 0.439054 0.0658296
1236 1 0.500202 0.187513 0.43588
66 1 0.060673 0.0668862 0.124853
74 1 0.310974 0.0619831 0.124794
16 1 0.371768 0.0637651 0.0612055
1092 1 0.499861 0.0584904 0.189265
19 1 0.0572467 0.124428 0.0621822
70 1 0.192309 0.0655216 0.124264
89 1 0.253301 0.128021 0.1266
93 1 0.376789 0.123469 0.125808
90 1 0.315458 0.185617 0.124263
196 1 -0.000492524 0.0651904 0.441251
35 1 0.0644308 0.251722 0.0648349
24 1 0.126137 0.189075 0.0610467
86 1 0.192358 0.18783 0.127688
28 1 0.247207 0.190557 0.0622178
109 1 0.376541 0.248371 0.119389
94 1 0.435512 0.187939 0.1243
106 1 0.318281 0.310685 0.121941
110 1 0.436842 0.309666 0.126408
63 1 0.442256 0.378329 0.0587501
117 1 0.122542 0.372998 0.12436
121 1 0.252215 0.372513 0.12588
126 1 0.434715 0.437791 0.12488
209 1 0.00182852 0.123466 0.379418
114 1 0.060653 0.44193 0.130218
56 1 0.126683 0.43719 0.0658816
64 1 0.375019 0.436247 0.0590553
68 1 0.00262587 0.0641378 0.188983
71 1 0.186224 0.00193895 0.188024
76 1 0.249596 0.0652775 0.187411
80 1 0.372937 0.0611498 0.188787
91 1 0.315034 0.123721 0.187274
78 1 0.434415 0.0639626 0.126959
100 1 0.00353789 0.31845 0.190242
88 1 0.124681 0.189482 0.185606
85 1 0.123998 0.125552 0.124933
92 1 0.250742 0.188638 0.187913
96 1 0.376908 0.184184 0.186685
248 1 0.12792 0.439549 0.433379
82 1 0.0634643 0.186402 0.122438
105 1 0.253491 0.24985 0.122913
1105 1 0.499185 0.122885 0.122861
101 1 0.122938 0.248409 0.123097
112 1 0.371558 0.307198 0.188858
111 1 0.433602 0.250101 0.187244
113 1 0.00441971 0.376997 0.121839
98 1 0.0621712 0.311472 0.125414
102 1 0.189419 0.312827 0.123663
125 1 0.377304 0.374378 0.122573
3 1 0.0629743 0.00266038 0.0677363
127 1 0.435811 0.371361 0.190225
123 1 0.310948 0.373251 0.187259
65 1 0.000821694 0.000192866 0.129134
120 1 0.127731 0.433793 0.185385
137 1 0.248873 0.00413646 0.250343
118 1 0.188444 0.437409 0.127462
124 1 0.250167 0.436132 0.188333
122 1 0.308635 0.436552 0.123379
7 1 0.184707 -0.000560843 0.0627688
128 1 0.373406 0.4343 0.187341
138 1 0.310006 0.0667163 0.249562
142 1 0.437904 0.0621815 0.247101
83 1 0.0591886 0.130021 0.1873
87 1 0.180549 0.125107 0.186876
72 1 0.122533 0.0652621 0.18946
157 1 0.372529 0.124938 0.248349
146 1 0.059676 0.187089 0.254777
149 1 0.123763 0.13023 0.249687
153 1 0.245911 0.126686 0.246943
154 1 0.309972 0.184637 0.246007
95 1 0.438733 0.123325 0.186058
103 1 0.189103 0.252385 0.184192
150 1 0.186271 0.188072 0.248979
107 1 0.309745 0.24713 0.187411
173 1 0.369985 0.243776 0.2509
158 1 0.434706 0.183278 0.251827
20 1 0.0012102 0.190145 0.0621147
99 1 0.0636494 0.247956 0.191535
165 1 0.125267 0.251904 0.253283
169 1 0.246958 0.248542 0.253086
170 1 0.311327 0.308844 0.250883
116 1 0.000494817 0.435733 0.190811
162 1 0.063914 0.317308 0.250866
104 1 0.127463 0.310515 0.186194
119 1 0.189148 0.36954 0.186493
108 1 0.248485 0.310695 0.188407
189 1 0.373739 0.370633 0.246403
73 1 0.251767 -0.000383831 0.124553
178 1 0.0626993 0.431629 0.249197
115 1 0.0656506 0.373766 0.186671
181 1 0.129522 0.374415 0.24636
186 1 0.315128 0.438602 0.251195
641 1 0.00233495 0.499905 0.249828
1665 1 0.498457 0.499965 0.248479
130 1 0.0612767 0.0624646 0.253059
282 1 0.308565 0.18914 0.500317
134 1 0.183014 0.0671767 0.255766
136 1 0.125929 0.0615581 0.314837
140 1 0.249534 0.0628201 0.31357
155 1 0.307045 0.12642 0.310706
1121 1 0.497456 0.249479 0.126631
147 1 0.0621149 0.122277 0.317076
151 1 0.184175 0.130073 0.315645
156 1 0.247905 0.185703 0.315098
160 1 0.374708 0.190073 0.315329
159 1 0.437913 0.125054 0.313606
152 1 0.122214 0.190504 0.313475
167 1 0.185343 0.24877 0.313737
171 1 0.311474 0.248045 0.312225
175 1 0.43722 0.247622 0.314557
265 1 0.251088 -0.000591393 0.501869
163 1 0.064387 0.250367 0.312388
306 1 0.0648182 0.437891 0.496802
168 1 0.12306 0.314032 0.314085
166 1 0.187618 0.314252 0.254635
187 1 0.311507 0.3721 0.313989
141 1 0.375481 0.00147538 0.250855
174 1 0.434605 0.307605 0.25018
182 1 0.191553 0.436563 0.245212
185 1 0.250704 0.371851 0.249105
188 1 0.254179 0.436821 0.308306
191 1 0.436261 0.373888 0.315091
190 1 0.434268 0.434428 0.249503
184 1 0.125086 0.43761 0.315876
1201 1 0.50049 0.373315 0.249979
198 1 0.187061 0.0606133 0.378348
651 1 0.313352 0.501482 0.309464
97 1 5.93998e-05 0.253222 0.126116
144 1 0.378002 0.0648541 0.313762
653 1 0.375904 0.49663 0.246543
221 1 0.375017 0.123476 0.372674
206 1 0.435558 0.0643381 0.377767
205 1 0.372358 0.00269762 0.374505
213 1 0.119142 0.124035 0.376552
218 1 0.312977 0.186241 0.376122
655 1 0.436625 0.495559 0.307697
214 1 0.186161 0.18815 0.375405
226 1 0.0650042 0.313372 0.380019
229 1 0.123077 0.254663 0.374916
233 1 0.249929 0.248252 0.37391
176 1 0.368828 0.311209 0.309898
230 1 0.18566 0.312584 0.373095
172 1 0.250138 0.309421 0.315373
179 1 0.0599825 0.375571 0.312196
245 1 0.124498 0.375246 0.371257
183 1 0.191389 0.376867 0.313952
250 1 0.309352 0.437013 0.375675
254 1 0.435849 0.437286 0.372926
255 1 0.437206 0.372701 0.433448
242 1 0.0624387 0.437777 0.376236
246 1 0.189427 0.442512 0.375032
239 1 0.439745 0.247626 0.433822
201 1 0.255634 0.00238066 0.37193
240 1 0.369525 0.309239 0.440429
192 1 0.369343 0.434972 0.316469
67 1 0.0597599 0.0037624 0.191045
75 1 0.312085 0.00357817 0.189326
244 1 0.00305352 0.43874 0.439465
202 1 0.309048 0.0675327 0.373652
231 1 0.18426 0.25017 0.434178
208 1 0.374208 0.0641801 0.433968
711 1 0.189447 0.496574 0.441392
194 1 0.060272 0.0587276 0.376568
215 1 0.187428 0.121906 0.437516
210 1 0.0613203 0.189879 0.370406
217 1 0.247182 0.127144 0.375053
220 1 0.246977 0.191476 0.437939
235 1 0.307578 0.250079 0.441211
237 1 0.37199 0.250313 0.375873
222 1 0.433237 0.187044 0.373671
251 1 0.313498 0.373528 0.432188
227 1 0.0594638 0.252059 0.43925
232 1 0.129183 0.312627 0.439335
234 1 0.313549 0.313255 0.375507
243 1 0.0609211 0.373642 0.438338
247 1 0.188046 0.375943 0.436096
249 1 0.24901 0.375236 0.376294
253 1 0.374025 0.374142 0.377562
238 1 0.436377 0.309465 0.375966
252 1 0.249871 0.434305 0.437953
256 1 0.374727 0.43892 0.437776
224 1 0.371757 0.184873 0.433894
30 1 0.441435 0.188079 0.000531792
1188 1 0.494541 0.313395 0.313513
216 1 0.125 0.189307 0.435739
200 1 0.119956 0.0628305 0.440024
236 1 0.245539 0.311213 0.438253
211 1 0.0618351 0.123364 0.440596
219 1 0.309435 0.129032 0.439427
204 1 0.254229 0.0625518 0.439747
223 1 0.435468 0.12561 0.435888
197 1 0.126301 0.00185412 0.375619
54 1 0.184311 0.43758 0.00226006
139 1 0.313381 0.0020975 0.30988
2 1 0.0657209 0.0613083 -3.0646e-05
34 1 0.0654746 0.313005 -0.00106105
38 1 0.187265 0.312822 0.00234087
133 1 0.124658 0.00346622 0.249582
318 1 0.43611 0.434251 0.496284
1060 1 0.498658 0.316252 0.0633153
84 1 0.00182046 0.191232 0.187678
1265 1 0.499633 0.377544 0.374754
69 1 0.122252 0.0020408 0.128184
21 1 0.124824 0.124281 0.00219434
129 1 -0.000562127 0.0021822 0.248902
719 1 0.434229 0.499085 0.43404
647 1 0.186702 0.49721 0.309646
645 1 0.125699 0.496424 0.24796
302 1 0.436161 0.312494 0.499243
77 1 0.374779 0.00254148 0.123799
313 1 0.255601 0.371315 0.497088
773 1 0.125064 0.495999 0.495923
199 1 0.187336 0.00109769 0.440695
14 1 0.435358 0.0577433 0.000456312
143 1 0.435108 0.00453553 0.313866
1601 1 0.495226 0.49764 0.127201
1089 1 0.498742 0.00055681 0.122988
241 1 -6.24076e-05 0.374537 0.377773
1172 1 0.496697 0.190727 0.309258
164 1 0.00100475 0.313665 0.312352
1137 1 0.493107 0.374994 0.127539
1233 1 0.498734 0.126464 0.376788
161 1 0.00389572 0.254888 0.248907
269 1 0.37861 -0.00113456 0.495933
46 1 0.438787 0.313589 0.000326129
286 1 0.437842 0.18854 0.496842
22 1 0.189891 0.18504 0.00060761
58 1 0.30884 0.437058 -0.000682289
281 1 0.244944 0.1261 0.497673
310 1 0.189476 0.433064 0.498823
42 1 0.31338 0.307641 0.00277056
297 1 0.249152 0.249717 0.499685
33 1 0.00184352 0.248765 0.0037087
270 1 0.438764 0.0622201 0.497305
301 1 0.372872 0.242738 0.498833
45 1 0.377086 0.249785 0.00381859
262 1 0.186427 0.0634241 0.498885
10 1 0.312553 0.058896 0.00220276
775 1 0.190149 0.493136 0.561768
401 1 0.00348495 0.129684 0.748744
1057 1 0.499274 0.254481 1.00147
1284 1 0.498883 0.0655868 0.561663
909 1 0.37946 0.500718 0.74812
49 1 0.000944493 0.37553 0.996004
1393 1 0.495258 0.376924 0.626603
284 1 0.249624 0.188454 0.56331
283 1 0.307713 0.123899 0.56365
388 1 0.00092492 0.0647751 0.81442
18 1 0.0632316 0.186998 1.00025
963 1 0.0617974 0.501496 0.938941
420 1 -5.07767e-05 0.309981 0.81229
837 1 0.125024 0.499539 0.624482
303 1 0.43247 0.249073 0.560772
296 1 0.128028 0.315361 0.565552
304 1 0.378348 0.312563 0.560459
307 1 0.0602381 0.379488 0.566685
312 1 0.125617 0.43449 0.563769
311 1 0.19068 0.373749 0.558704
484 1 0.00140181 0.311279 0.934707
315 1 0.312999 0.372545 0.561566
905 1 0.249973 0.497797 0.75215
277 1 0.124289 0.126341 0.502281
316 1 0.254825 0.435577 0.565634
314 1 0.313234 0.435115 0.498853
278 1 0.184056 0.189938 0.499133
264 1 0.125196 0.0648044 0.563807
272 1 0.374147 0.0601892 0.562722
329 1 0.248478 2.66983e-05 0.622026
275 1 0.0645268 0.124635 0.562282
279 1 0.186194 0.125677 0.564303
268 1 0.24663 0.0567005 0.564333
287 1 0.433112 0.123524 0.559292
349 1 0.379862 0.124475 0.626468
345 1 0.251913 0.119595 0.627694
288 1 0.37259 0.183413 0.5645
350 1 0.440967 0.186539 0.621631
337 1 0.00286586 0.125386 0.627147
372 1 -0.000171913 0.436945 0.691502
280 1 0.124562 0.188766 0.562547
342 1 0.190303 0.189408 0.629881
299 1 0.312541 0.243813 0.560118
291 1 0.0620905 0.252129 0.56247
357 1 0.121723 0.251586 0.627218
295 1 0.187749 0.252787 0.564688
362 1 0.313118 0.308392 0.622265
365 1 0.375683 0.246401 0.62146
354 1 0.0605986 0.312308 0.62732
358 1 0.191516 0.312076 0.624813
300 1 0.24933 0.310072 0.560911
381 1 0.376653 0.370403 0.622313
370 1 0.0630354 0.441014 0.631628
308 1 0.000651229 0.440701 0.56254
373 1 0.131155 0.376136 0.626636
320 1 0.372207 0.436931 0.562289
319 1 0.436601 0.377672 0.559945
779 1 0.311402 0.498044 0.561006
374 1 0.189334 0.43512 0.627816
1300 1 0.498137 0.18785 0.556735
322 1 0.0600794 0.0627067 0.627649
326 1 0.185413 0.0619535 0.628099
334 1 0.437726 0.0636285 0.62845
341 1 0.127439 0.125268 0.626503
330 1 0.313338 0.063234 0.623812
841 1 0.255705 0.497962 0.6231
338 1 0.0642163 0.190301 0.62413
346 1 0.310516 0.185238 0.628353
352 1 0.375884 0.18901 0.687522
417 1 0.00335728 0.250245 0.751382
1025 1 0.497578 0.00345574 0.99819
344 1 0.122774 0.187364 0.687703
355 1 0.0632788 0.252252 0.687915
361 1 0.246268 0.249313 0.625221
359 1 0.184283 0.253806 0.685958
367 1 0.439355 0.249674 0.687863
1316 1 0.499817 0.31447 0.560398
364 1 0.251176 0.313758 0.688827
368 1 0.37637 0.310403 0.683062
379 1 0.313858 0.372173 0.687666
366 1 0.437582 0.311197 0.62184
371 1 0.0594694 0.377058 0.689099
376 1 0.126135 0.443241 0.689085
375 1 0.186164 0.373137 0.693415
380 1 0.246735 0.433491 0.688375
377 1 0.255228 0.374251 0.623762
382 1 0.434999 0.442577 0.623611
378 1 0.311861 0.435686 0.627941
384 1 0.380985 0.436947 0.688433
907 1 0.312786 0.500419 0.814141
783 1 0.437854 0.500471 0.559139
328 1 0.125453 0.0580033 0.690637
333 1 0.377951 0.00458036 0.627001
839 1 0.190408 0.497419 0.685285
343 1 0.188425 0.122854 0.691734
390 1 0.183793 0.0586887 0.753398
332 1 0.248808 0.065772 0.691775
347 1 0.316444 0.126143 0.690726
336 1 0.375092 0.0655298 0.687928
351 1 0.438273 0.127518 0.687627
339 1 0.0659722 0.124887 0.69236
348 1 0.250471 0.182505 0.690774
414 1 0.437467 0.187461 0.746928
406 1 0.189917 0.189075 0.747427
425 1 0.249424 0.249722 0.752632
363 1 0.312911 0.247896 0.686646
421 1 0.125028 0.251218 0.748863
426 1 0.311114 0.315239 0.753478
430 1 0.433161 0.308905 0.746913
360 1 0.123212 0.314157 0.685536
422 1 0.18575 0.313752 0.752447
445 1 0.373522 0.373713 0.750808
383 1 0.435948 0.371382 0.6863
441 1 0.248342 0.375447 0.751157
845 1 0.371482 0.500448 0.625145
434 1 0.064602 0.437759 0.749593
438 1 0.184948 0.437819 0.747362
442 1 0.311883 0.437318 0.747204
459 1 0.313512 0.0020297 0.937134
396 1 0.246426 0.0632203 0.811517
394 1 0.306833 0.06104 0.753879
386 1 0.0610772 0.061899 0.752652
405 1 0.126944 0.128965 0.749378
407 1 0.189213 0.123471 0.814227
409 1 0.25321 0.125764 0.751757
398 1 0.438 0.0653493 0.751409
402 1 0.0634187 0.188693 0.751135
413 1 0.376939 0.126222 0.749361
415 1 0.439877 0.126103 0.810925
408 1 0.124735 0.185651 0.810554
423 1 0.187913 0.24795 0.811604
412 1 0.251978 0.187998 0.811486
410 1 0.31142 0.186114 0.750207
429 1 0.368914 0.251843 0.749433
416 1 0.376102 0.197241 0.812157
431 1 0.44007 0.249416 0.811405
418 1 0.0576693 0.319487 0.750106
447 1 0.436365 0.376468 0.8089
435 1 0.05832 0.380929 0.811188
437 1 0.123679 0.372854 0.752731
439 1 0.18461 0.378946 0.808886
443 1 0.311396 0.381063 0.810752
446 1 0.4398 0.438983 0.750763
440 1 0.125998 0.441517 0.80981
444 1 0.247 0.439698 0.811401
448 1 0.376967 0.436898 0.810988
392 1 0.12262 0.0635837 0.814217
454 1 0.186856 0.0617267 0.876974
400 1 0.373068 0.0629452 0.809888
469 1 0.128419 0.124329 0.872504
473 1 0.248922 0.123248 0.873879
458 1 0.311586 0.0619511 0.874056
477 1 0.375518 0.121196 0.87338
461 1 0.370809 0.0022341 0.877486
403 1 0.0635849 0.122421 0.812156
470 1 0.18606 0.187762 0.876956
411 1 0.315381 0.130219 0.810541
474 1 0.314561 0.189562 0.876595
493 1 0.371472 0.252398 0.88006
478 1 0.436974 0.188376 0.87587
419 1 0.0645789 0.255494 0.812869
485 1 0.124857 0.25153 0.877438
427 1 0.308668 0.252983 0.812847
432 1 0.371964 0.312221 0.815696
6 1 0.185651 0.0586737 1.00104
424 1 0.123745 0.316278 0.812533
486 1 0.187961 0.311737 0.870647
428 1 0.247401 0.316124 0.811492
498 1 0.0613885 0.437483 0.87799
506 1 0.312804 0.43986 0.872584
509 1 0.372996 0.376955 0.876365
510 1 0.434493 0.438554 0.87128
57 1 0.249342 0.374838 0.998805
1457 1 0.496734 0.372292 0.750964
450 1 0.0589274 0.0640377 0.88014
463 1 0.438453 -0.000928802 0.935729
462 1 0.439279 0.0616356 0.876989
399 1 0.436502 0.00604964 0.813046
456 1 0.124329 0.06396 0.94021
467 1 0.0626871 0.126933 0.937432
460 1 0.248698 0.0623658 0.938189
464 1 0.378007 0.062185 0.94248
476 1 0.249033 0.187711 0.934727
475 1 0.314698 0.123372 0.933101
479 1 0.442283 0.126769 0.944144
466 1 0.0654226 0.18467 0.875996
472 1 0.128899 0.188037 0.94344
480 1 0.373335 0.182147 0.936598
491 1 0.310504 0.247247 0.938837
833 1 0.00583948 0.500717 0.622588
508 1 0.249314 0.436638 0.937001
483 1 0.0609804 0.25252 0.938102
487 1 0.189303 0.250775 0.93598
489 1 0.252022 0.254076 0.877793
492 1 0.251215 0.310541 0.94166
499 1 0.0652331 0.376943 0.936731
482 1 0.0624194 0.316079 0.87316
490 1 0.309815 0.316941 0.873899
496 1 0.378674 0.311184 0.937026
494 1 0.441477 0.317673 0.875182
501 1 0.1243 0.382147 0.873485
505 1 0.243977 0.378665 0.875028
511 1 0.438803 0.378456 0.932305
502 1 0.185099 0.440908 0.87269
512 1 0.374245 0.438214 0.936809
1345 1 0.499366 0.00242852 0.627732
267 1 0.315072 0.00140983 0.564994
481 1 0.00154824 0.247744 0.873655
25 1 0.251174 0.123572 0.999368
451 1 0.0631382 0.000272859 0.935303
471 1 0.186421 0.125765 0.938902
271 1 0.437759 0.00183643 0.5635
971 1 0.313488 0.498839 0.933944
495 1 0.436929 0.248571 0.934468
61 1 0.373893 0.373969 0.996871
507 1 0.307829 0.376265 0.936311
62 1 0.438432 0.436147 0.997448
504 1 0.123712 0.438862 0.936132
488 1 0.122903 0.314232 0.937358
389 1 0.122729 0.00214125 0.751823
503 1 0.185986 0.37592 0.938747
274 1 0.0598402 0.188132 0.500734
309 1 0.125426 0.37548 0.498691
453 1 0.124236 0.00159169 0.875836
290 1 0.0616227 0.31395 0.503682
340 1 0.000912072 0.191149 0.685442
266 1 0.310203 0.0575487 0.503018
335 1 0.435266 0.00393131 0.691519
771 1 0.06237 0.497493 0.559935
468 1 0.00142953 0.189631 0.939288
258 1 0.060283 0.0616439 0.500463
285 1 0.368219 0.128094 0.501706
387 1 0.0641496 0.00431502 0.817515
769 1 0.00229019 0.501599 0.50216
513 1 -0.000309206 0.495956 0.999487
273 1 -1.07653e-05 0.127181 0.503534
1297 1 0.496722 0.128188 0.4992
293 1 0.121752 0.253188 0.503273
53 1 0.124696 0.37373 0.999198
777 1 0.250885 0.497363 0.502136
26 1 0.314145 0.184207 0.998037
50 1 0.0651272 0.437389 1.00137
37 1 0.129205 0.254602 0.997713
298 1 0.311171 0.306265 0.503937
29 1 0.374831 0.125492 0.997485
1700 1 0.50014 0.815114 0.311669
15 1 0.438903 0.998902 0.0647078
531 1 0.0608252 0.626857 0.0610463
520 1 0.122697 0.566005 0.0666617
524 1 0.246974 0.564429 0.0642612
581 1 0.122392 0.500456 0.125607
536 1 0.123401 0.69103 0.0622307
535 1 0.186432 0.628033 0.0607963
1540 1 0.501751 0.556781 0.0580956
544 1 0.378459 0.687192 0.06182
547 1 0.0589668 0.7512 0.0625377
551 1 0.191521 0.75154 0.0660102
540 1 0.248365 0.686569 0.0639886
555 1 0.306322 0.751352 0.0596006
559 1 0.436978 0.75378 0.0643523
585 1 0.24412 0.501146 0.125209
556 1 0.246898 0.813848 0.0634518
566 1 0.180175 0.93592 0.00344007
515 1 0.0622704 0.501751 0.0610207
785 1 0.00332986 0.623586 0.497491
552 1 0.122332 0.814121 0.0590346
1809 1 0.499546 0.625105 0.496988
571 1 0.309916 0.874179 0.0591599
560 1 0.374874 0.812797 0.0664659
563 1 0.0602285 0.875114 0.0666541
568 1 0.118987 0.937401 0.0659841
576 1 0.374667 0.936929 0.064913
575 1 0.43729 0.871975 0.0560112
1604 1 0.497935 0.560799 0.185129
1684 1 0.49794 0.688921 0.310965
11 1 0.311605 1.00079 0.0652581
541 1 0.374774 0.626626 0.00219715
135 1 0.18604 1.00094 0.313016
596 1 0.000185234 0.687487 0.182028
528 1 0.375047 0.56194 0.0662486
518 1 0.183509 0.564062 0.000844001
578 1 0.06153 0.559549 0.125704
597 1 0.125893 0.626079 0.125746
586 1 0.311373 0.559564 0.128832
601 1 0.252486 0.62682 0.125828
543 1 0.436799 0.622314 0.0641646
539 1 0.310875 0.618589 0.0603314
605 1 0.375434 0.620303 0.127544
606 1 0.436376 0.68369 0.127178
613 1 0.129112 0.753135 0.126397
602 1 0.316831 0.682996 0.122457
621 1 0.375541 0.752178 0.127036
614 1 0.19117 0.811505 0.125773
617 1 0.251757 0.748213 0.129944
567 1 0.184604 0.875062 0.0606802
633 1 0.251509 0.874123 0.123718
618 1 0.31311 0.815802 0.121024
626 1 0.057056 0.939476 0.126655
572 1 0.249508 0.937661 0.0657546
634 1 0.31165 0.940296 0.125317
637 1 0.37268 0.87733 0.125621
625 1 0.000727271 0.874311 0.128016
1761 1 0.497061 0.751353 0.371897
689 1 0.000434213 0.876729 0.251492
562 1 0.0610464 0.937199 0.00480846
638 1 0.436455 0.937459 0.123382
195 1 0.0608035 0.999409 0.436268
612 1 0.00491983 0.810252 0.192351
584 1 0.127345 0.562591 0.187006
582 1 0.187511 0.564947 0.128338
592 1 0.373183 0.560245 0.188897
590 1 0.435253 0.560811 0.123543
594 1 0.0613855 0.687781 0.121001
600 1 0.125664 0.686188 0.189926
598 1 0.186278 0.689838 0.127845
608 1 0.373155 0.690668 0.187752
604 1 0.251239 0.684189 0.187853
623 1 0.440748 0.751099 0.186251
610 1 0.0598679 0.810943 0.123625
615 1 0.190253 0.751934 0.18907
622 1 0.436035 0.814098 0.124441
629 1 0.124627 0.874549 0.124121
616 1 0.123708 0.815203 0.189667
631 1 0.193084 0.876324 0.186772
635 1 0.311055 0.875495 0.185488
708 1 0.00498301 0.566474 0.434996
717 1 0.372954 0.500533 0.373092
630 1 0.187512 0.939048 0.12818
640 1 0.370193 0.939576 0.189223
709 1 0.126727 0.500317 0.377054
632 1 0.122389 0.937178 0.186508
676 1 0.00294264 0.81089 0.316781
794 1 0.313668 0.683466 0.500271
642 1 0.0624267 0.562971 0.251611
532 1 0.00183174 0.686292 0.0602707
595 1 0.0615529 0.623864 0.189888
646 1 0.191247 0.562612 0.25262
588 1 0.252558 0.561071 0.189972
650 1 0.317139 0.562955 0.249712
1729 1 0.498381 0.501452 0.374692
658 1 0.065018 0.68693 0.250571
661 1 0.123195 0.620101 0.252761
599 1 0.185799 0.623037 0.188342
603 1 0.311798 0.628338 0.188244
607 1 0.438292 0.621173 0.189109
670 1 0.436066 0.685395 0.248723
611 1 0.0667841 0.747634 0.184427
662 1 0.188562 0.685285 0.249474
681 1 0.24942 0.751011 0.248849
580 1 0.000349598 0.560117 0.190238
674 1 0.0641173 0.817221 0.256078
677 1 0.125039 0.748563 0.249337
620 1 0.25018 0.812808 0.190619
624 1 0.376934 0.813713 0.188004
619 1 0.313101 0.752019 0.188489
686 1 0.437441 0.814967 0.2492
627 1 0.066856 0.876828 0.187537
678 1 0.188377 0.815389 0.248527
701 1 0.375123 0.875817 0.248252
639 1 0.434415 0.879458 0.185229
690 1 0.0637416 0.939092 0.25077
636 1 0.250959 0.938606 0.188033
702 1 0.438165 0.9373 0.2521
1668 1 0.496912 0.560825 0.312372
694 1 0.185447 0.938052 0.248741
1588 1 0.497651 0.93443 0.0635616
583 1 0.184252 0.501521 0.185245
643 1 0.0616285 0.498783 0.310843
652 1 0.253764 0.563772 0.313567
781 1 0.377118 0.500255 0.498864
654 1 0.438156 0.562398 0.252851
659 1 0.0662783 0.623548 0.316492
648 1 0.126729 0.559443 0.309237
667 1 0.313703 0.626468 0.310132
669 1 0.373172 0.624987 0.250114
1636 1 0.496635 0.817579 0.183886
664 1 0.126965 0.687021 0.31245
663 1 0.190618 0.624993 0.311373
665 1 0.250941 0.624241 0.24819
675 1 0.0632063 0.750897 0.3151
666 1 0.312554 0.690969 0.250155
685 1 0.374641 0.75163 0.24994
687 1 0.436362 0.750288 0.311192
679 1 0.183737 0.754333 0.311056
683 1 0.311654 0.753934 0.312223
688 1 0.375064 0.813821 0.313417
193 1 0.00267842 0.99903 0.376588
693 1 0.126797 0.874703 0.256812
680 1 0.124266 0.813519 0.316958
682 1 0.315119 0.814498 0.24629
697 1 0.247479 0.875821 0.249881
703 1 0.439424 0.877041 0.310942
813 1 0.374093 0.751767 0.49851
744 1 0.12624 0.81343 0.440503
698 1 0.311831 0.935845 0.251173
724 1 0.00158213 0.689476 0.434711
764 1 0.252521 0.938816 0.438358
561 1 -0.000304766 0.874601 0.00165407
710 1 0.188045 0.558596 0.369027
656 1 0.379394 0.560425 0.312216
718 1 0.436748 0.565263 0.377845
557 1 0.37676 0.751019 0.00306829
714 1 0.312104 0.563502 0.375893
733 1 0.373306 0.627064 0.373165
671 1 0.437873 0.626542 0.309402
722 1 0.0619987 0.69039 0.374181
725 1 0.130379 0.623115 0.374944
729 1 0.254121 0.625377 0.374481
730 1 0.316842 0.689891 0.374035
734 1 0.438952 0.687034 0.373854
743 1 0.190815 0.749143 0.437655
741 1 0.124922 0.752352 0.376626
726 1 0.187984 0.683006 0.373641
668 1 0.255251 0.686755 0.314592
672 1 0.376808 0.687349 0.30943
749 1 0.37171 0.756433 0.371583
1764 1 0.498149 0.815579 0.438642
738 1 0.0657045 0.813355 0.3812
684 1 0.250242 0.814934 0.313309
699 1 0.313426 0.875967 0.313204
750 1 0.435727 0.815549 0.375859
691 1 0.0643552 0.881491 0.316361
695 1 0.188696 0.877316 0.317413
761 1 0.25091 0.8819 0.371575
519 1 0.18392 0.503293 0.0650714
696 1 0.128315 0.940721 0.316188
700 1 0.248782 0.942334 0.312202
704 1 0.374727 0.938093 0.309408
766 1 0.435625 0.940772 0.374259
1793 1 0.49731 0.498698 0.492478
721 1 0.00166619 0.622371 0.373096
707 1 0.0604646 0.503029 0.436664
1732 1 0.496226 0.563015 0.435149
706 1 0.0661724 0.559416 0.373363
716 1 0.250139 0.5633 0.43482
731 1 0.315446 0.624812 0.43593
735 1 0.43795 0.6246 0.434546
13 1 0.375584 0.997522 0.00171106
727 1 0.188488 0.625431 0.437256
732 1 0.253997 0.688457 0.437417
736 1 0.379845 0.688365 0.436201
747 1 0.318507 0.7517 0.434526
745 1 0.25249 0.756507 0.377716
746 1 0.312163 0.817958 0.380111
751 1 0.439552 0.752049 0.43526
728 1 0.124906 0.687512 0.435759
742 1 0.191912 0.816683 0.374298
759 1 0.189197 0.872426 0.441162
757 1 0.125582 0.87655 0.379899
752 1 0.376177 0.818147 0.441441
767 1 0.436871 0.876979 0.441613
754 1 0.0661072 0.936932 0.378873
760 1 0.127485 0.934993 0.445604
765 1 0.37768 0.873371 0.37569
763 1 0.311671 0.877065 0.43825
762 1 0.315788 0.941454 0.372514
1748 1 0.494977 0.68626 0.43338
660 1 -0.00136325 0.688611 0.309703
521 1 0.245353 0.501757 0.00372732
758 1 0.18461 0.938254 0.380875
768 1 0.377616 0.935333 0.439317
712 1 0.128651 0.562384 0.437092
720 1 0.376952 0.561485 0.436016
723 1 0.0663043 0.627391 0.438682
713 1 0.255575 0.499945 0.370594
755 1 0.0627804 0.874991 0.441255
739 1 0.0683323 0.748769 0.437224
748 1 0.24897 0.810138 0.44124
673 1 0.00518721 0.748906 0.248718
1825 1 0.499304 0.752047 0.498526
782 1 0.437189 0.559364 0.496308
79 1 0.436542 0.998935 0.188971
740 1 -0.000755995 0.815394 0.439536
203 1 0.314463 0.998939 0.439327
131 1 0.0637361 0.999531 0.31488
591 1 0.436008 0.501609 0.184609
579 1 0.0644561 0.499996 0.189827
756 1 0.000774511 0.936612 0.438925
5 1 0.122144 0.998066 0.0037153
1556 1 0.496755 0.689332 0.0623724
207 1 0.440869 0.99771 0.435875
1649 1 0.497782 0.877595 0.124077
538 1 0.316551 0.691979 0.00143966
644 1 0.0031777 0.561546 0.312087
778 1 0.311303 0.560819 0.497214
9 1 0.247355 0.998854 0.00376925
564 1 0.00146719 0.938821 0.0644247
1713 1 0.499563 0.877628 0.252951
793 1 0.250051 0.624084 0.493222
526 1 0.434046 0.559736 0.00243082
774 1 0.188511 0.556441 0.498825
830 1 0.439834 0.941075 0.499096
534 1 0.182992 0.688512 0.000747294
570 1 0.312507 0.939902 0.000556921
549 1 0.123666 0.751391 0.00298343
801 1 0.0017335 0.748916 0.496185
1553 1 0.497893 0.629201 0.000175984
797 1 0.378472 0.620811 0.498611
574 1 0.439981 0.937909 0.00287889
967 1 0.187974 0.500602 0.939662
911 1 0.436444 0.501957 0.81182
261 1 0.124325 0.996506 0.501612
1796 1 0.498073 0.560096 0.55353
391 1 0.184076 0.99677 0.810972
929 1 0.00381038 0.750322 0.74967
780 1 0.248819 0.561739 0.561201
791 1 0.191129 0.625139 0.558735
969 1 0.248859 0.504534 0.876352
795 1 0.312682 0.622366 0.559741
1988 1 0.500812 0.564321 0.935211
799 1 0.434782 0.623364 0.560503
807 1 0.189577 0.748923 0.56393
796 1 0.252912 0.686843 0.558984
772 1 0.00727984 0.564607 0.5624
812 1 0.252467 0.815891 0.562724
811 1 0.312385 0.750918 0.563269
819 1 0.0632177 0.870566 0.562531
993 1 0.00246183 0.752281 0.872869
331 1 0.310288 0.999407 0.687497
975 1 0.437589 0.500305 0.935291
1953 1 0.497147 0.750512 0.754263
397 1 0.371898 0.999289 0.752242
323 1 0.0629964 0.999505 0.683189
825 1 0.248962 0.872563 0.499803
842 1 0.311282 0.563636 0.624616
784 1 0.378614 0.559103 0.561263
787 1 0.0655103 0.627085 0.564341
776 1 0.126305 0.556154 0.559927
838 1 0.187434 0.560811 0.622621
846 1 0.434854 0.56212 0.623513
455 1 0.183778 0.995625 0.938385
792 1 0.128062 0.687836 0.562558
861 1 0.376934 0.622973 0.624293
533 1 0.125351 0.624421 0.999931
805 1 0.129294 0.743939 0.502407
854 1 0.18589 0.688644 0.627175
869 1 0.125382 0.749106 0.625023
800 1 0.377133 0.683981 0.559907
858 1 0.317668 0.683253 0.623453
815 1 0.437608 0.751929 0.561605
903 1 0.185991 0.503761 0.810508
803 1 0.0615814 0.749555 0.564965
873 1 0.251317 0.746504 0.623461
878 1 0.436692 0.806481 0.629301
808 1 0.126976 0.810097 0.565318
816 1 0.378449 0.812349 0.56502
831 1 0.43908 0.878587 0.564684
882 1 0.0647249 0.934988 0.622176
824 1 0.126272 0.932845 0.561786
885 1 0.124837 0.872605 0.625076
823 1 0.187281 0.872477 0.565598
828 1 0.25127 0.9349 0.568748
827 1 0.313735 0.874904 0.561388
894 1 0.437482 0.942893 0.628448
806 1 0.188675 0.808232 0.502086
263 1 0.18323 0.999279 0.562912
847 1 0.437698 0.498444 0.684543
832 1 0.377238 0.943108 0.56779
393 1 0.24627 0.998365 0.749649
1024 1 0.377332 0.940578 0.939608
259 1 0.0607991 0.997809 0.560939
325 1 0.124151 0.99849 0.621177
327 1 0.186967 0.998949 0.685042
834 1 0.0691237 0.562196 0.629228
853 1 0.130096 0.627312 0.626639
857 1 0.250779 0.626677 0.624702
844 1 0.251585 0.560425 0.685512
859 1 0.313884 0.622691 0.690283
863 1 0.44023 0.626448 0.684052
848 1 0.377996 0.562251 0.685916
850 1 0.0605597 0.691744 0.625874
856 1 0.129912 0.687638 0.686358
855 1 0.194664 0.62839 0.686964
862 1 0.4406 0.688543 0.620016
881 1 0.00412637 0.876054 0.62295
870 1 0.19249 0.808954 0.623246
871 1 0.191545 0.750044 0.689555
874 1 0.309443 0.81015 0.628454
877 1 0.375847 0.747517 0.623831
866 1 0.0617449 0.812687 0.627083
886 1 0.184479 0.935978 0.627288
889 1 0.246157 0.876121 0.625921
893 1 0.375086 0.879746 0.625013
896 1 0.376835 0.940086 0.688876
2020 1 0.498719 0.813983 0.939833
826 1 0.313085 0.938644 0.505623
2001 1 0.497579 0.624112 0.871147
890 1 0.316897 0.937617 0.622368
1015 1 0.186798 0.875384 0.934196
840 1 0.130288 0.566736 0.68931
814 1 0.43812 0.814016 0.499743
899 1 0.0649831 0.500662 0.808608
852 1 -0.000799581 0.683712 0.687643
851 1 0.0672534 0.628366 0.689676
1021 1 0.373843 0.87751 0.881222
917 1 0.124696 0.628919 0.753967
902 1 0.190086 0.566947 0.75302
921 1 0.254226 0.625428 0.751574
910 1 0.442718 0.566309 0.744838
1873 1 0.499452 0.623996 0.615678
925 1 0.374324 0.624119 0.750522
849 1 0.00243291 0.625947 0.622384
860 1 0.251752 0.6883 0.686119
864 1 0.377218 0.688368 0.685343
926 1 0.432405 0.687085 0.755598
867 1 0.0651401 0.752133 0.688357
872 1 0.128273 0.812208 0.686095
934 1 0.189847 0.817668 0.748811
875 1 0.317047 0.745961 0.687011
880 1 0.372346 0.809059 0.685391
879 1 0.439219 0.74747 0.69109
835 1 0.0575859 0.505062 0.689516
1019 1 0.309623 0.876706 0.939319
883 1 0.0653603 0.874071 0.689032
876 1 0.252313 0.809355 0.688834
887 1 0.184997 0.874369 0.688998
895 1 0.435782 0.876763 0.687822
868 1 -0.00114456 0.812299 0.688378
888 1 0.122626 0.935383 0.685951
891 1 0.314765 0.875847 0.685862
957 1 0.371893 0.874126 0.74847
558 1 0.438046 0.810093 0.999866
892 1 0.255371 0.937499 0.684269
565 1 0.121545 0.874144 0.99985
994 1 0.0604055 0.814284 0.872645
1956 1 0.498474 0.8138 0.81408