ITEM: TIMESTEP
100000
ITEM: NUMBER OF ATOMS
2048
ITEM: BOX BOUNDS pp pp pp
0.0000000000000000e+00 1.1351867295763070e+01
0.0000000000000000e+00 1.1351867295763070e+01
0.0000000000000000e+00 1.1351867295763070e+01
ITEM: ATOMS id type xs ys zs
205 1 0.373174 0.0022819 0.374494
719 1 0.439471 0.499934 0.439999
1265 1 0.494784 0.372756 0.371146
37 1 0.119824 0.249699 -0.00122044
577 1 2.89208e-05 0.498466 0.122839
67 1 0.0638753 0.00591927 0.18992
33 1 0.00298128 0.244936 -0.00287473
8 1 0.126685 0.0625443 0.0624956
1153 1 0.502259 -0.00136989 0.253923
100 1 0.00309088 0.310088 0.189996
16 1 0.372671 0.0682256 0.0595693
1105 1 0.497213 0.127368 0.13012
135 1 0.180902 0.00683841 0.315055
23 1 0.18272 0.126567 0.0624765
27 1 0.311921 0.128312 0.0605738
62 1 0.444328 0.442312 0.00480486
313 1 0.252801 0.369961 0.498909
262 1 0.188526 0.0654869 0.496996
28 1 0.246445 0.182872 0.061194
32 1 0.37329 0.189195 0.0634257
285 1 0.375641 0.120881 0.496303
277 1 0.124076 0.124245 0.500715
43 1 0.312976 0.248936 0.0647515
314 1 0.3093 0.433974 0.499042
232 1 0.118548 0.310588 0.443362
40 1 0.120497 0.310812 0.0582713
44 1 0.250855 0.310626 0.0577051
1188 1 0.501476 0.309404 0.308826
1601 1 0.498447 0.500701 0.130626
60 1 0.252457 0.440271 0.0639624
59 1 0.313897 0.374107 0.0644794
1268 1 0.499752 0.433289 0.44096
50 1 0.0577259 0.43851 -0.00359355
56 1 0.126103 0.433801 0.0538207
137 1 0.247985 0.00463879 0.251497
26 1 0.313649 0.188342 0.000811046
243 1 0.0630861 0.37802 0.437699
139 1 0.310975 0.0047684 0.316296
1137 1 0.498553 0.378337 0.132665
65 1 0.00658729 0.00103652 0.1287
1204 1 0.498948 0.438015 0.316786
70 1 0.186652 0.0622727 0.122343
12 1 0.251234 0.0676003 0.061211
31 1 0.44545 0.119011 0.0628212
19 1 0.0604865 0.124392 0.0651234
89 1 0.24808 0.120207 0.128857
93 1 0.372732 0.124811 0.118945
589 1 0.373951 0.497991 0.131416
24 1 0.122961 0.190966 0.0659196
86 1 0.188084 0.184138 0.127359
90 1 0.30464 0.185379 0.125779
47 1 0.443135 0.246048 0.0652716
35 1 0.0624838 0.248843 0.062586
39 1 0.189991 0.248788 0.0705543
105 1 0.250378 0.249306 0.128812
106 1 0.310524 0.316768 0.12983
48 1 0.374153 0.312831 0.0641413
109 1 0.367947 0.247636 0.127546
110 1 0.435211 0.306639 0.124067
51 1 0.0602617 0.368474 0.0575307
102 1 0.192443 0.312726 0.125598
114 1 0.0674841 0.432963 0.128694
55 1 0.194762 0.371463 0.0591191
121 1 0.249886 0.372944 0.127197
63 1 0.437308 0.370082 0.0662579
18 1 0.0692568 0.185732 0.00432704
129 1 0.00336183 0.00690046 0.249049
64 1 0.379143 0.439919 0.0562296
581 1 0.122782 0.501369 0.122613
66 1 0.0638151 0.0680076 0.124671
1073 1 0.497565 0.370247 0.00619541
74 1 0.312213 0.0642786 0.125187
715 1 0.313656 0.504286 0.436144
78 1 0.446924 0.0592471 0.124587
85 1 0.125611 0.124885 0.124544
87 1 0.192264 0.120406 0.190945
91 1 0.311138 0.121481 0.188918
96 1 0.369646 0.185019 0.179469
94 1 0.436775 0.184036 0.123706
82 1 0.0624983 0.187135 0.121682
101 1 0.123942 0.251699 0.121044
92 1 0.252514 0.183916 0.190609
107 1 0.31015 0.247592 0.192414
103 1 0.192406 0.249824 0.188075
112 1 0.373859 0.312335 0.189109
111 1 0.435534 0.244356 0.185615
717 1 0.377309 0.504288 0.379255
98 1 0.0627825 0.310071 0.120585
123 1 0.313534 0.369789 0.194688
125 1 0.379225 0.370914 0.129818
127 1 0.435241 0.372367 0.190675
120 1 0.125652 0.438802 0.185545
117 1 0.124487 0.367502 0.117354
119 1 0.190115 0.37643 0.185148
126 1 0.43385 0.43657 0.127607
118 1 0.183841 0.435515 0.117646
124 1 0.25353 0.434589 0.189509
122 1 0.315663 0.432871 0.128548
133 1 0.119035 0.00186157 0.255346
72 1 0.127632 0.0643798 0.185367
76 1 0.249249 0.0629899 0.189062
143 1 0.436542 -8.74483e-05 0.314653
225 1 0.00165402 0.251366 0.376631
11 1 0.314695 0.00647355 0.0622608
80 1 0.377134 0.0615115 0.18231
142 1 0.437187 0.0617238 0.245861
95 1 0.427998 0.129653 0.181935
83 1 0.0653075 0.126597 0.186584
157 1 0.383065 0.124217 0.25567
146 1 0.0633076 0.189188 0.248019
99 1 0.0640853 0.252002 0.18958
88 1 0.12679 0.188278 0.187728
150 1 0.188842 0.185877 0.252228
154 1 0.315397 0.183875 0.253047
173 1 0.380894 0.244548 0.248732
158 1 0.441513 0.184987 0.254315
104 1 0.119831 0.309389 0.186466
108 1 0.251576 0.310622 0.189085
115 1 0.0678239 0.373983 0.191396
185 1 0.248207 0.376569 0.247752
174 1 0.441489 0.309748 0.250877
1124 1 0.49814 0.308521 0.187718
178 1 0.0570137 0.436493 0.255535
182 1 0.194771 0.440657 0.254864
186 1 0.307327 0.437431 0.252638
128 1 0.369669 0.434039 0.193376
75 1 0.317218 0.00437395 0.186006
248 1 0.127017 0.434797 0.434283
585 1 0.247878 0.49394 0.129633
242 1 0.0562586 0.436836 0.376867
136 1 0.119644 0.0731098 0.317483
134 1 0.182962 0.0624396 0.251845
144 1 0.374408 0.064367 0.312603
130 1 0.0628006 0.068153 0.253359
140 1 0.247449 0.0629391 0.318933
138 1 0.314557 0.063378 0.250165
147 1 0.0606491 0.132364 0.312085
149 1 0.126158 0.126243 0.254125
152 1 0.127556 0.186032 0.314841
151 1 0.188051 0.126823 0.315773
153 1 0.249536 0.120567 0.253843
159 1 0.440213 0.128668 0.313892
165 1 0.123013 0.247393 0.253438
156 1 0.245358 0.187197 0.313659
171 1 0.319236 0.245894 0.311284
175 1 0.441127 0.253601 0.319005
255 1 0.4371 0.377822 0.435201
250 1 0.316044 0.434632 0.373799
166 1 0.186572 0.309886 0.251363
169 1 0.251484 0.2472 0.252248
170 1 0.314991 0.313516 0.253608
176 1 0.376673 0.307212 0.312405
709 1 0.129313 0.497456 0.374204
162 1 0.0611776 0.312672 0.253289
187 1 0.310918 0.375835 0.312897
189 1 0.3771 0.370906 0.250913
191 1 0.43536 0.381315 0.310292
181 1 0.130215 0.377122 0.253052
183 1 0.18984 0.374084 0.311474
192 1 0.373204 0.440888 0.311117
190 1 0.431887 0.438125 0.24818
252 1 0.251908 0.436917 0.43777
235 1 0.311851 0.251263 0.434228
68 1 0.00239745 0.0646235 0.18718
649 1 0.253578 0.501114 0.25275
194 1 0.0585178 0.072357 0.37911
241 1 -0.00197321 0.372415 0.382098
38 1 0.191311 0.309426 0.00165587
213 1 0.128518 0.131475 0.382145
198 1 0.182256 0.0617978 0.38205
202 1 0.308938 0.0596395 0.379597
206 1 0.442676 0.0620045 0.372636
210 1 0.0591037 0.187189 0.37493
155 1 0.312227 0.123183 0.315378
218 1 0.312114 0.190239 0.370681
160 1 0.378198 0.18537 0.317439
163 1 0.058623 0.244516 0.311674
222 1 0.442431 0.182267 0.377584
226 1 0.0596634 0.312403 0.373624
167 1 0.18139 0.249693 0.316101
172 1 0.251642 0.314019 0.313903
231 1 0.189892 0.254758 0.434889
77 1 0.37783 0.00430779 0.119306
168 1 0.121999 0.312129 0.312885
230 1 0.189819 0.315816 0.370621
249 1 0.250552 0.37823 0.378991
253 1 0.375531 0.378665 0.369649
238 1 0.434572 0.312848 0.378932
179 1 0.0642032 0.37464 0.316363
245 1 0.121771 0.371167 0.378592
188 1 0.254664 0.439563 0.315534
254 1 0.438591 0.438343 0.375702
256 1 0.375161 0.438593 0.436662
266 1 0.314196 0.0616157 0.501034
184 1 0.128933 0.438904 0.308934
246 1 0.189116 0.436406 0.373787
131 1 0.0607268 0.00986837 0.316973
519 1 0.180584 0.501424 0.0537311
220 1 0.254377 0.185468 0.430198
711 1 0.188671 0.498055 0.432973
200 1 0.123549 0.0613854 0.444235
204 1 0.248238 0.0615791 0.441017
1108 1 0.495524 0.186381 0.18883
211 1 0.0650919 0.132048 0.436714
215 1 0.187247 0.130751 0.441262
217 1 0.250378 0.122383 0.375921
208 1 0.375131 0.0609983 0.438237
30 1 0.441556 0.187181 0.00379875
251 1 0.315681 0.376297 0.434922
216 1 0.124705 0.191507 0.442086
214 1 0.18795 0.188295 0.377127
219 1 0.309856 0.121373 0.436929
221 1 0.379535 0.118077 0.383054
223 1 0.445282 0.125915 0.438494
224 1 0.382928 0.189283 0.439526
236 1 0.253364 0.311011 0.439044
233 1 0.248204 0.25421 0.376089
237 1 0.379923 0.247496 0.378497
227 1 0.0588956 0.24345 0.435009
229 1 0.120843 0.25314 0.379819
240 1 0.373699 0.314405 0.439519
239 1 0.437937 0.25726 0.439817
20 1 -0.000361522 0.187256 0.0601357
234 1 0.318654 0.312611 0.369279
247 1 0.191075 0.375293 0.440038
73 1 0.254667 0.00470522 0.124912
1329 1 0.500258 0.369497 0.493748
1236 1 0.498044 0.192504 0.438324
141 1 0.376672 -9.20272e-05 0.253087
81 1 0.00181343 0.126837 0.123543
707 1 0.0648037 0.497785 0.436767
655 1 0.432039 0.49897 0.31469
1169 1 0.495881 0.123384 0.242968
10 1 0.312511 0.0682796 0.000109452
203 1 0.309784 0.00173326 0.441078
310 1 0.190296 0.436869 0.499219
1156 1 0.496953 0.0647264 0.306517
13 1 0.379938 -5.59689e-05 0.00528548
41 1 0.252605 0.247209 0.00559147
1140 1 0.498178 0.439075 0.188476
7 1 0.187352 0.000156557 0.0629648
1665 1 0.496391 0.495601 0.250421
1121 1 0.501918 0.24553 0.126586
228 1 -0.000823146 0.312268 0.438857
1220 1 0.499441 0.0637257 0.442819
46 1 0.438937 0.305616 0.00514069
278 1 0.192516 0.193858 0.495839
45 1 0.378495 0.24641 0.00158223
773 1 0.127197 0.499576 0.495091
207 1 0.438773 0.00529657 0.432288
22 1 0.182712 0.188525 -0.000203298
161 1 -0.000310701 0.248801 0.254648
52 1 -0.00245222 0.439914 0.0601763
113 1 0.00225812 0.37985 0.12284
1233 1 0.501794 0.121249 0.3737
145 1 0.00162892 0.128396 0.247723
1201 1 0.491063 0.37497 0.250345
97 1 0.0045651 0.250138 0.126482
523 1 0.315967 0.498044 0.0597902
579 1 0.0629709 0.497445 0.191726
282 1 0.31608 0.190371 0.489306
297 1 0.258617 0.252604 0.499805
317 1 0.374619 0.37252 0.501465
318 1 0.435153 0.438787 0.501628
781 1 0.374522 0.498497 0.496906
305 1 0.00274656 0.372367 0.500584
2 1 0.0603818 0.0636087 0.00459452
309 1 0.12433 0.383181 0.497461
777 1 0.249733 0.496443 0.496223
294 1 0.184433 0.309969 0.495104
269 1 0.374036 0.00105327 0.497904
453 1 0.128049 0.00621258 0.871202
967 1 0.189257 0.500738 0.94042
340 1 0.000680244 0.192817 0.693266
775 1 0.189369 0.498133 0.56174
356 1 0.00246472 0.309391 0.687016
265 1 0.250057 -0.00103366 0.501055
481 1 0.00152178 0.256258 0.868842
484 1 -0.00123292 0.315302 0.931248
264 1 0.124037 0.0660794 0.566107
275 1 0.0663812 0.130059 0.561882
279 1 0.189202 0.122029 0.560373
268 1 0.249382 0.0622781 0.566912
283 1 0.316517 0.130941 0.55744
272 1 0.376667 0.0626998 0.561933
274 1 0.06545 0.189945 0.49939
284 1 0.248708 0.189403 0.561026
288 1 0.381042 0.182842 0.560648
295 1 0.180601 0.250905 0.563474
299 1 0.318207 0.252808 0.560581
303 1 0.440548 0.253091 0.561626
296 1 0.126036 0.310015 0.563369
304 1 0.375844 0.311847 0.56226
465 1 0.00458395 0.129564 0.874012
263 1 0.185572 0.00876661 0.564519
401 1 7.31908e-07 0.12539 0.746806
372 1 4.53603e-06 0.438465 0.68329
1460 1 0.498329 0.435249 0.816065
779 1 0.310253 0.499274 0.559176
293 1 0.122286 0.251773 0.50326
1281 1 0.492098 0.00592015 0.505753
42 1 0.317713 0.303364 0.999256
319 1 0.435116 0.374749 0.569824
298 1 0.313158 0.315826 0.501982
312 1 0.126889 0.443238 0.562185
316 1 0.245383 0.433891 0.561921
301 1 0.378472 0.247588 0.504044
333 1 0.37175 0.00776845 0.623485
14 1 0.439354 0.0681735 0.997769
326 1 0.187558 0.0633596 0.626866
499 1 0.0616348 0.367742 0.937107
330 1 0.315949 0.0695696 0.631621
455 1 0.186512 0.0006154 0.936116
21 1 0.124334 0.124176 1.0001
325 1 0.124378 -0.00031383 0.625077
341 1 0.127539 0.130859 0.625216
280 1 0.130384 0.185718 0.554104
345 1 0.249003 0.129165 0.624449
346 1 0.318987 0.188354 0.622388
349 1 0.382466 0.125503 0.629217
287 1 0.440695 0.120163 0.570095
404 1 0.0055942 0.191988 0.812222
361 1 0.252969 0.244935 0.624921
365 1 0.380939 0.253566 0.623556
321 1 0.00258271 0.00083594 0.624544
291 1 0.0650987 0.25329 0.564506
358 1 0.190093 0.304362 0.626007
300 1 0.25462 0.310845 0.566238
267 1 0.312454 -0.00095333 0.561105
307 1 0.056807 0.369263 0.568802
373 1 0.130967 0.373881 0.622734
311 1 0.189025 0.367745 0.556779
377 1 0.254935 0.377023 0.626368
370 1 0.0597505 0.439599 0.621422
315 1 0.311843 0.375868 0.567205
378 1 0.311696 0.443396 0.623943
468 1 0.00642139 0.195186 0.932157
374 1 0.189581 0.438274 0.626834
29 1 0.381565 0.127119 1.00048
320 1 0.369704 0.437748 0.560955
382 1 0.434946 0.439578 0.635968
963 1 0.0580099 0.498261 0.935525
322 1 0.0597749 0.0652168 0.623024
332 1 0.252805 0.0626182 0.689309
347 1 0.319644 0.129343 0.685829
336 1 0.375332 0.0659854 0.692917
334 1 0.438463 0.0630923 0.636832
351 1 0.440783 0.123877 0.693424
343 1 0.190533 0.125104 0.685807
342 1 0.190562 0.187061 0.629147
338 1 0.0649763 0.188634 0.619371
843 1 0.313978 0.500023 0.691136
355 1 0.0670393 0.248038 0.682411
357 1 0.12547 0.243983 0.626313
344 1 0.129915 0.185273 0.688379
359 1 0.189616 0.249389 0.694589
363 1 0.3197 0.257454 0.686944
350 1 0.444434 0.189081 0.628393
352 1 0.380375 0.189083 0.68473
368 1 0.379444 0.315331 0.687796
354 1 0.0703988 0.31206 0.632005
375 1 0.19294 0.378866 0.690762
362 1 0.315106 0.315057 0.626582
381 1 0.373719 0.38513 0.627365
366 1 0.441981 0.309116 0.624739
508 1 0.252007 0.444908 0.941798
501 1 0.126792 0.378719 0.874248
289 1 0.00171059 0.251972 0.502154
376 1 0.126904 0.438767 0.689535
907 1 0.312643 0.500177 0.810978
495 1 0.444195 0.256152 0.937585
281 1 0.252369 0.125928 0.503625
394 1 0.314264 0.0632599 0.750284
1393 1 0.493758 0.37568 0.628412
391 1 0.186878 0.00528839 0.810111
339 1 0.0586997 0.130546 0.687436
328 1 0.126693 0.0668421 0.68767
386 1 0.0618437 0.0675998 0.74898
390 1 0.194894 0.0601409 0.75103
409 1 0.25781 0.125182 0.749466
405 1 0.133219 0.118864 0.749345
348 1 0.260539 0.189279 0.690338
413 1 0.381762 0.130775 0.75026
433 1 0.000767785 0.383629 0.749591
425 1 0.25939 0.251918 0.748645
367 1 0.446188 0.249303 0.691959
270 1 0.434546 0.0645633 0.500173
418 1 0.0633823 0.306129 0.746966
360 1 0.133832 0.316657 0.687586
364 1 0.253461 0.311158 0.685917
429 1 0.379816 0.247589 0.749955
371 1 0.0672048 0.371763 0.685676
25 1 0.245895 0.120593 1.00167
422 1 0.191987 0.312742 0.75469
379 1 0.316468 0.37942 0.684662
426 1 0.319852 0.312032 0.746668
438 1 0.187503 0.446331 0.751842
380 1 0.249727 0.441761 0.684528
445 1 0.380261 0.37029 0.750994
383 1 0.439976 0.367597 0.689584
504 1 0.127402 0.436889 0.940605
57 1 0.252882 0.370517 0.996494
897 1 0.00143882 0.498734 0.748756
480 1 0.386906 0.193815 0.940527
389 1 0.127802 0.0050261 0.753005
384 1 0.376616 0.440339 0.697272
34 1 0.057064 0.309509 0.995889
490 1 0.314738 0.314304 0.874069
398 1 0.438051 0.0638079 0.755045
392 1 0.118088 0.0662301 0.814512
400 1 0.37794 0.0607064 0.812669
415 1 0.445268 0.128264 0.812382
402 1 0.066789 0.190767 0.748585
407 1 0.188612 0.125363 0.816548
410 1 0.320209 0.185966 0.749897
411 1 0.314912 0.124851 0.812728
416 1 0.379284 0.192551 0.813501
414 1 0.447599 0.190838 0.754487
406 1 0.188467 0.184397 0.751828
431 1 0.446248 0.257707 0.816198
419 1 0.0632318 0.25201 0.811818
424 1 0.125066 0.314301 0.810493
421 1 0.128142 0.248115 0.752414
432 1 0.377165 0.306767 0.811391
430 1 0.444512 0.310711 0.7547
260 1 0.00341889 0.0671527 0.564613
435 1 0.0586094 0.378913 0.813139
437 1 0.126461 0.375091 0.747296
441 1 0.259131 0.37733 0.752098
434 1 0.0645159 0.438788 0.747985
439 1 0.195231 0.378107 0.812582
440 1 0.131691 0.437447 0.815362
442 1 0.315447 0.439808 0.757437
443 1 0.315809 0.380268 0.818899
446 1 0.442626 0.437676 0.752417
448 1 0.384403 0.433744 0.805306
451 1 0.0591637 0.00374439 0.941012
286 1 0.442715 0.187087 0.502194
512 1 0.379485 0.437301 0.939189
899 1 0.064144 0.495391 0.812822
462 1 0.439582 0.0647655 0.873074
396 1 0.254601 0.0613827 0.813935
458 1 0.31975 0.061382 0.872698
477 1 0.379954 0.122192 0.8748
353 1 0.00546412 0.251061 0.620704
403 1 0.0621374 0.126829 0.811002
473 1 0.257606 0.122704 0.873395
478 1 0.440639 0.187571 0.875384
496 1 0.381438 0.311653 0.942501
58 1 0.314352 0.43228 0.998836
408 1 0.124918 0.183649 0.811878
423 1 0.198943 0.252611 0.816487
412 1 0.252968 0.184483 0.819343
427 1 0.314958 0.251935 0.813547
493 1 0.379296 0.25004 0.875173
482 1 0.0656639 0.314218 0.869514
511 1 0.442636 0.378008 0.939088
428 1 0.256815 0.320175 0.811243
509 1 0.37486 0.379143 0.879533
494 1 0.444465 0.314693 0.882957
447 1 0.444945 0.366988 0.812914
507 1 0.316535 0.369351 0.942017
444 1 0.254174 0.441228 0.819312
506 1 0.313749 0.442449 0.877502
783 1 0.444771 0.492784 0.56753
498 1 0.0648965 0.437822 0.87442
502 1 0.192365 0.440417 0.882065
456 1 0.122044 0.0642299 0.938966
487 1 0.18655 0.247237 0.940312
492 1 0.255555 0.313516 0.936171
505 1 0.257454 0.383484 0.882666
337 1 0.000175977 0.126351 0.627255
271 1 0.439054 0.00360168 0.571502
483 1 0.0652065 0.253749 0.930779
450 1 0.0607327 0.0588916 0.877473
467 1 0.0602574 0.124754 0.932386
454 1 0.187971 0.0613488 0.875729
460 1 0.260488 0.0666364 0.936029
464 1 0.376355 0.0584728 0.936737
466 1 0.0640307 0.18898 0.874129
472 1 0.126425 0.185545 0.937755
469 1 0.127518 0.123193 0.877767
470 1 0.187772 0.190321 0.877518
471 1 0.190966 0.118473 0.938551
475 1 0.318252 0.130602 0.936177
474 1 0.317469 0.187723 0.873944
479 1 0.438916 0.128789 0.938074
503 1 0.189958 0.37301 0.934035
476 1 0.249532 0.190358 0.945441
491 1 0.316269 0.247447 0.935643
510 1 0.442149 0.440864 0.875153
485 1 0.125336 0.251781 0.873275
486 1 0.193002 0.317044 0.871686
488 1 0.129834 0.312091 0.934264
489 1 0.249992 0.248328 0.88658
259 1 0.0641648 0.00267772 0.562293
1524 1 0.5001 0.440329 0.938987
276 1 0.00272468 0.189231 0.5624
1313 1 0.499383 0.252078 0.505239
53 1 0.126474 0.370525 0.997329
290 1 0.0620057 0.311757 0.505055
327 1 0.189898 0.000606976 0.686465
324 1 0.00214951 0.0645982 0.686687
9 1 0.254802 0.000332214 0.99766
258 1 0.0606034 0.0715466 0.501168
6 1 0.185014 0.0600292 0.998778
306 1 0.0621594 0.439612 0.505417
61 1 0.377492 0.371103 1.00234
54 1 0.192257 0.436046 0.997307
302 1 0.435957 0.31424 0.504815
569 1 0.248914 0.870178 0.00264964
790 1 0.189637 0.688401 0.496737
1761 1 0.499787 0.754088 0.373914
1572 1 0.493357 0.808004 0.0599024
1636 1 0.493973 0.815222 0.189463
539 1 0.310034 0.620102 0.0646409
528 1 0.373068 0.566517 0.0565351
531 1 0.0617527 0.619634 0.0705631
814 1 0.434422 0.815594 0.499821
535 1 0.185204 0.623429 0.0649421
549 1 0.117562 0.753185 0.00393928
1716 1 0.498694 0.93912 0.311145
1697 1 0.4962 0.743677 0.245082
1764 1 0.497269 0.810261 0.436193
540 1 0.253727 0.684443 0.0630066
809 1 0.249191 0.748136 0.500678
71 1 0.193031 0.998232 0.184798
760 1 0.119912 0.937557 0.440068
1604 1 0.495133 0.563923 0.19152
563 1 0.0603615 0.877113 0.0646519
552 1 0.124088 0.817064 0.0615145
575 1 0.441412 0.875603 0.0608869
770 1 0.0643741 0.560762 0.49656
571 1 0.316717 0.872239 0.0664754
576 1 0.373661 0.937654 0.0653176
195 1 0.0519569 1.00062 0.436611
568 1 0.124381 0.935528 0.0660092
572 1 0.252692 0.938311 0.0628594
3 1 0.0613252 1.00014 0.0619966
546 1 0.0587647 0.816358 0.00202789
590 1 0.437185 0.563672 0.125548
578 1 0.059479 0.564773 0.124844
520 1 0.123562 0.563951 0.0583486
582 1 0.188913 0.556638 0.12376
524 1 0.246787 0.559884 0.0653147
543 1 0.441 0.622705 0.0593132
597 1 0.125621 0.622746 0.126988
601 1 0.249771 0.620151 0.127351
544 1 0.376423 0.687593 0.0671751
536 1 0.120625 0.687841 0.0630838
598 1 0.188755 0.69016 0.125672
559 1 0.436584 0.748631 0.0654322
613 1 0.121169 0.750113 0.119673
547 1 0.0605171 0.754381 0.0651771
551 1 0.185524 0.750447 0.0648835
556 1 0.249201 0.810735 0.0616365
555 1 0.312793 0.744506 0.065655
560 1 0.377674 0.808774 0.0644229
564 1 0.00190156 0.941682 0.0605883
629 1 0.124084 0.875937 0.128519
633 1 0.251648 0.874253 0.126354
637 1 0.376286 0.876607 0.130617
550 1 0.186234 0.811403 0.00472617
724 1 0.00381183 0.686968 0.434353
567 1 0.18413 0.876198 0.0620316
638 1 0.435374 0.938518 0.124549
630 1 0.189701 0.939954 0.125905
634 1 0.314451 0.939699 0.12404
1620 1 0.500178 0.687055 0.183247
591 1 0.433435 0.502712 0.194374
1633 1 0.495762 0.749726 0.127704
778 1 0.316218 0.565956 0.496344
1700 1 0.490121 0.811204 0.313202
584 1 0.125667 0.562759 0.186555
588 1 0.243785 0.559513 0.18523
586 1 0.314364 0.556801 0.12419
1556 1 0.4992 0.683868 0.060141
594 1 0.0555325 0.690364 0.123134
600 1 0.125347 0.687621 0.184492
599 1 0.187249 0.625359 0.187003
605 1 0.37712 0.622487 0.120945
606 1 0.435854 0.682318 0.125016
615 1 0.180606 0.749383 0.192293
604 1 0.252724 0.686996 0.18745
602 1 0.312246 0.683565 0.125934
621 1 0.367436 0.747057 0.131597
527 1 0.435686 0.503577 0.0625007
611 1 0.0647302 0.744753 0.186727
617 1 0.252375 0.752143 0.122138
619 1 0.304193 0.760262 0.191089
624 1 0.371516 0.817351 0.192251
622 1 0.433173 0.814159 0.127963
610 1 0.0657918 0.813569 0.125753
768 1 0.373453 0.938019 0.435888
614 1 0.184052 0.807172 0.123101
618 1 0.312438 0.8101 0.123145
639 1 0.434697 0.875211 0.187193
759 1 0.185585 0.874257 0.438963
627 1 0.0600216 0.868654 0.190003
632 1 0.126803 0.934857 0.185005
636 1 0.256167 0.943091 0.188449
635 1 0.307149 0.875074 0.184589
640 1 0.374424 0.942323 0.18213
583 1 0.185561 0.499307 0.188421
626 1 0.0633582 0.937304 0.129246
789 1 0.125886 0.623417 0.495966
628 1 0.00277435 0.938722 0.190743
646 1 0.185101 0.563999 0.250225
15 1 0.444258 0.996504 0.0622213
592 1 0.374871 0.561484 0.185764
650 1 0.311319 0.563029 0.248949
654 1 0.437659 0.565219 0.258817
769 1 0.00205618 0.501309 0.497302
661 1 0.125381 0.624611 0.24481
603 1 0.313414 0.623362 0.184126
607 1 0.435376 0.622715 0.184667
755 1 0.0581739 0.879633 0.435081
595 1 0.0570756 0.628279 0.183437
662 1 0.188079 0.688663 0.251698
608 1 0.375209 0.687492 0.186107
670 1 0.436843 0.679418 0.245366
677 1 0.119683 0.750366 0.249346
666 1 0.313631 0.682871 0.24401
623 1 0.433995 0.744605 0.188854
674 1 0.054088 0.808634 0.250347
678 1 0.18247 0.814219 0.249836
681 1 0.245102 0.750103 0.248988
685 1 0.363145 0.753858 0.248558
686 1 0.439264 0.8055 0.250313
616 1 0.122035 0.812073 0.191865
620 1 0.243425 0.813691 0.184796
701 1 0.361912 0.883057 0.248241
690 1 0.0622592 0.9346 0.256613
631 1 0.19 0.878622 0.186496
698 1 0.310378 0.946904 0.254188
702 1 0.43699 0.939413 0.25557
1713 1 0.494331 0.875176 0.253782
553 1 0.249 0.751196 0.00429896
694 1 0.182955 0.943302 0.252098
514 1 0.0616402 0.565341 -0.00306851
557 1 0.375108 0.743497 0.000411473
570 1 0.313262 0.934903 -0.000860294
642 1 0.0557446 0.564837 0.245768
663 1 0.183651 0.624494 0.308585
665 1 0.254108 0.624376 0.247882
656 1 0.373758 0.561917 0.32002
671 1 0.443203 0.625144 0.316415
664 1 0.125578 0.684876 0.308289
667 1 0.315277 0.623923 0.310956
669 1 0.372419 0.620394 0.248094
658 1 0.0627852 0.685381 0.244129
1652 1 0.50106 0.935769 0.184586
680 1 0.119608 0.811438 0.309746
679 1 0.186037 0.745164 0.310017
682 1 0.302257 0.819296 0.248023
693 1 0.121183 0.874021 0.249264
697 1 0.24618 0.881774 0.247823
688 1 0.371371 0.805434 0.314521
703 1 0.427406 0.871367 0.307493
728 1 0.1284 0.685046 0.430527
699 1 0.303165 0.877868 0.311518
1780 1 0.500642 0.935252 0.435742
645 1 0.12906 0.497745 0.249287
737 1 0.00259182 0.748965 0.377595
743 1 0.18917 0.752228 0.438398
1649 1 0.493885 0.879719 0.123953
562 1 0.0660445 0.936612 0.000223664
706 1 0.0642163 0.558079 0.371009
648 1 0.123013 0.562865 0.30629
652 1 0.252361 0.562495 0.310696
718 1 0.442323 0.561551 0.373804
538 1 0.317522 0.68443 0.00319258
739 1 0.0658809 0.747021 0.435034
733 1 0.381234 0.63071 0.372792
659 1 0.0617485 0.627484 0.306813
726 1 0.187477 0.686158 0.371851
668 1 0.250568 0.683207 0.307408
730 1 0.315065 0.68485 0.378502
802 1 0.0635174 0.814779 0.497025
675 1 0.0583175 0.73855 0.308082
672 1 0.379442 0.688171 0.307807
734 1 0.445626 0.689276 0.374547
683 1 0.305034 0.742994 0.310412
684 1 0.249384 0.804513 0.312768
687 1 0.440519 0.746371 0.313662
749 1 0.373045 0.744567 0.37763
767 1 0.433458 0.875632 0.436683
651 1 0.309628 0.502104 0.315048
761 1 0.247853 0.882905 0.376341
746 1 0.307922 0.808849 0.372811
786 1 0.0657416 0.690254 0.493107
691 1 0.0557758 0.874627 0.31921
695 1 0.184039 0.87761 0.307695
762 1 0.312086 0.944057 0.374866
765 1 0.368036 0.878093 0.374573
704 1 0.376874 0.941796 0.319241
797 1 0.381791 0.624385 0.500339
696 1 0.122046 0.939419 0.312655
700 1 0.243265 0.941199 0.311788
766 1 0.443122 0.940364 0.374564
712 1 0.128531 0.563028 0.43099
199 1 0.185426 0.996846 0.442662
714 1 0.31191 0.56202 0.37912
710 1 0.191253 0.564886 0.364674
727 1 0.18594 0.623255 0.433513
729 1 0.254377 0.626717 0.372674
735 1 0.436731 0.630471 0.435975
725 1 0.125294 0.620574 0.368821
732 1 0.245272 0.683222 0.432561
731 1 0.311345 0.620659 0.439023
722 1 0.0652401 0.684918 0.374371
741 1 0.123129 0.749844 0.3697
745 1 0.252312 0.745855 0.377276
736 1 0.37344 0.683142 0.440305
747 1 0.313195 0.746911 0.442313
738 1 0.0639936 0.811669 0.374428
742 1 0.184492 0.810721 0.374964
748 1 0.24986 0.814156 0.434807
751 1 0.430768 0.747559 0.439566
752 1 0.36969 0.808256 0.439718
744 1 0.12507 0.812358 0.431895
763 1 0.311051 0.878558 0.430883
750 1 0.431225 0.807387 0.380673
757 1 0.123219 0.870667 0.374408
647 1 0.188068 0.502845 0.311306
754 1 0.0639958 0.941561 0.374334
758 1 0.185504 0.933417 0.374479
764 1 0.249076 0.94211 0.436271
723 1 0.0591355 0.623036 0.429033
197 1 0.121905 0.99966 0.378717
720 1 0.381264 0.567958 0.433881
643 1 0.052845 0.499429 0.311209
692 1 -0.00147513 0.941498 0.312421
716 1 0.251036 0.560337 0.44045
526 1 0.444884 0.561118 0.00332076
79 1 0.443452 0.999985 0.186269
822 1 0.184089 0.933471 0.501903
554 1 0.318067 0.808325 0.00105998
1732 1 0.493806 0.566334 0.445214
5 1 0.124991 0.996939 0.00213361
713 1 0.250104 0.505007 0.374672
1825 1 0.494215 0.753655 0.500163
533 1 0.116372 0.628161 0.000626222
573 1 0.373891 0.876006 0.000692491
201 1 0.242492 0.999006 0.374612
653 1 0.376736 0.504086 0.250454
1777 1 0.496674 0.877779 0.367826
689 1 -0.00243001 0.875139 0.25407
587 1 0.311292 0.501164 0.18692
69 1 0.119996 0.99889 0.12394
515 1 0.0618731 0.501839 0.061759
534 1 0.182204 0.689326 0.0033853
793 1 0.250064 0.624452 0.495985
830 1 0.435844 0.940856 0.493657
801 1 0.00522803 0.751506 0.497188
825 1 0.2545 0.875277 0.493137
774 1 0.185718 0.565355 0.493558
537 1 0.252237 0.621294 0.00600281
776 1 0.130136 0.560561 0.558279
397 1 0.369289 0.997467 0.751107
1812 1 0.500851 0.686338 0.561903
1844 1 0.493214 0.936663 0.560795
331 1 0.313585 1.00258 0.686378
884 1 0.000813573 0.935644 0.68441
903 1 0.194375 0.502686 0.818524
461 1 0.379523 0.993378 0.877564
521 1 0.25322 0.50471 1.00111
826 1 0.311613 0.940529 0.49968
335 1 0.438707 0.996475 0.692959
1937 1 0.499851 0.624377 0.74986
975 1 0.440092 0.498261 0.937505
2020 1 0.497379 0.814685 0.937332
807 1 0.18574 0.749156 0.559249
800 1 0.371871 0.678143 0.56441
815 1 0.435136 0.747297 0.563578
961 1 0.00249962 0.500646 0.871897
808 1 0.125693 0.813241 0.562502
803 1 0.0651975 0.753055 0.560271
811 1 0.309685 0.751551 0.558704
1892 1 0.495923 0.813047 0.68911
459 1 0.311909 0.994747 0.932124
837 1 0.123929 0.50193 0.62164
973 1 0.379783 0.499309 0.866705
812 1 0.249086 0.8096 0.55938
932 1 0.00912437 0.814239 0.810832
845 1 0.37135 0.504342 0.632222
1012 1 0.00164727 0.9411 0.939052
823 1 0.184766 0.876903 0.560475
832 1 0.371761 0.934801 0.563972
969 1 0.250289 0.50467 0.878307
824 1 0.12537 0.935986 0.564499
522 1 0.315471 0.561417 1.00166
828 1 0.251751 0.935167 0.559754
901 1 0.125696 0.503731 0.746469
977 1 0.00356662 0.622163 0.872461
911 1 0.441099 0.497666 0.812256
784 1 0.372463 0.555935 0.559716
846 1 0.436435 0.560471 0.623083
787 1 0.0619815 0.625377 0.557747
834 1 0.0590032 0.566673 0.61762
853 1 0.124545 0.622592 0.621737
780 1 0.247709 0.559688 0.555142
795 1 0.307117 0.624127 0.55979
971 1 0.318136 0.508495 0.934057
792 1 0.119798 0.688332 0.557658
791 1 0.186664 0.62707 0.559863
796 1 0.248614 0.687559 0.55901
799 1 0.441105 0.622713 0.561393
854 1 0.184186 0.686987 0.626016
858 1 0.307666 0.689789 0.620013
862 1 0.426767 0.68045 0.629254
1969 1 0.499624 0.871571 0.750643
909 1 0.377443 0.503108 0.755154
869 1 0.124961 0.749408 0.623788
870 1 0.186559 0.812599 0.619056
873 1 0.245499 0.753029 0.623933
878 1 0.433947 0.81078 0.624464
395 1 0.313228 0.995397 0.809985
1905 1 0.497946 0.874514 0.620029
866 1 0.0547436 0.810048 0.619174
819 1 0.0586796 0.878159 0.56673
874 1 0.306384 0.808596 0.6264
816 1 0.374126 0.810953 0.557666
847 1 0.440094 0.501843 0.690187
885 1 0.12363 0.873693 0.623457
889 1 0.247286 0.878842 0.626117
827 1 0.314523 0.873854 0.558686
831 1 0.431702 0.878343 0.563728
882 1 0.064995 0.941364 0.621701
886 1 0.187935 0.93914 0.622507
890 1 0.314501 0.935949 0.624469
771 1 0.0648218 0.504995 0.560431
558 1 0.431672 0.810073 0.998505
838 1 0.183571 0.563879 0.624341
842 1 0.309453 0.563623 0.617406
848 1 0.368491 0.563629 0.691678
840 1 0.11701 0.563463 0.681886
857 1 0.246341 0.622817 0.618398
861 1 0.370212 0.617989 0.625287
850 1 0.0608923 0.687145 0.62006
855 1 0.185798 0.629007 0.684788
856 1 0.121987 0.685686 0.683847
517 1 0.119571 0.502325 1.00033
860 1 0.246487 0.688931 0.690813
875 1 0.305476 0.748451 0.689652
864 1 0.368206 0.687844 0.694548
877 1 0.371094 0.750636 0.623079
867 1 0.0623663 0.748425 0.682355
872 1 0.121421 0.80769 0.684555
876 1 0.242715 0.810262 0.684148
893 1 0.370563 0.871603 0.627785
895 1 0.431644 0.874985 0.685214
329 1 0.250797 1.00087 0.627364
892 1 0.246178 0.935727 0.687793
891 1 0.303646 0.873171 0.688365
888 1 0.121631 0.937783 0.690373
1010 1 0.0681323 0.943065 0.875537
894 1 0.43273 0.938481 0.628659
1023 1 0.436154 0.87171 0.936326
844 1 0.25032 0.563701 0.684545
994 1 0.0639789 0.823262 0.874697
1008 1 0.372447 0.811583 0.936015
1003 1 0.313126 0.747321 0.946478
898 1 0.0584158 0.562374 0.749179
902 1 0.193489 0.565311 0.746818
859 1 0.306144 0.623702 0.680874
925 1 0.374624 0.628502 0.749352
863 1 0.436311 0.620023 0.686219
851 1 0.0604828 0.629731 0.68329
1020 1 0.252095 0.932668 0.939269
921 1 0.254989 0.624634 0.747959
922 1 0.310157 0.688502 0.7509
926 1 0.436052 0.690556 0.756412
871 1 0.184824 0.745188 0.683408
918 1 0.183455 0.689011 0.752303
937 1 0.243727 0.753565 0.750525
879 1 0.429136 0.742284 0.690611
1022 1 0.438873 0.934484 0.877278
934 1 0.181378 0.81217 0.74821
933 1 0.126225 0.747895 0.742347
880 1 0.374135 0.804254 0.690857
942 1 0.434685 0.811437 0.75205
1016 1 0.128041 0.942138 0.933105
829 1 0.373707 0.877933 0.496856
887 1 0.182816 0.874659 0.686268
938 1 0.308347 0.810908 0.747786
957 1 0.372237 0.86759 0.747022
883 1 0.0651465 0.8761 0.686905
953 1 0.247289 0.875261 0.750828
958 1 0.432191 0.930211 0.750345
841 1 0.25247 0.500251 0.620794
946 1 0.0614091 0.939558 0.750588
561 1 0.00257096 0.877017 1.00063
950 1 0.18597 0.942364 0.745266
954 1 0.307761 0.931437 0.751902