ITEM: TIMESTEP
100000
ITEM: NUMBER OF ATOMS
2048
ITEM: BOX BOUNDS pp pp pp
0.0000000000000000e+00 1.1950412657485773e+01
0.0000000000000000e+00 1.1950412657485773e+01
0.0000000000000000e+00 1.1950412657485773e+01
ITEM: ATOMS id type xs ys zs
12 1 0.250559 0.058882 0.0668734
81 1 0.00142212 0.138313 0.120051
1044 1 0.497978 0.187028 0.0604901
75 1 0.314143 0.000416791 0.186015
32 1 0.396337 0.183505 0.0681947
1220 1 0.487242 0.0542495 0.439532
302 1 0.425315 0.306969 0.496587
53 1 0.117625 0.376281 0.00276298
34 1 0.0600562 0.31058 -0.00100811
1252 1 0.494717 0.314438 0.440052
205 1 0.368071 0.00273385 0.36886
48 1 0.385634 0.299148 0.0616088
37 1 0.127565 0.254992 0.0033322
1153 1 0.497836 0.00024597 0.26034
135 1 0.1931 0.00677999 0.315851
11 1 0.324013 0.0180874 0.0519772
1140 1 0.492234 0.444004 0.179251
1 1 0.00374477 0.00355277 0.00298076
1028 1 0.499088 0.0581151 0.0639197
207 1 0.422352 0.00447892 0.431941
228 1 0.0084502 0.302945 0.442813
1233 1 0.493548 0.124754 0.389967
8 1 0.131668 0.0695584 0.0626651
16 1 0.387663 0.0645916 0.0598524
30 1 0.439129 0.192096 -0.00226594
19 1 0.0688735 0.137261 0.0586943
23 1 0.196315 0.122715 0.058191
27 1 0.31557 0.132311 0.0567813
31 1 0.449293 0.120476 0.0680732
24 1 0.139302 0.186224 0.0616137
28 1 0.2478 0.18571 0.0501335
35 1 0.0670383 0.244794 0.0626065
39 1 0.190327 0.251504 0.0616568
43 1 0.331857 0.244976 0.0517671
47 1 0.447821 0.245702 0.0714369
40 1 0.129689 0.314095 0.0636544
44 1 0.254652 0.306737 0.0565204
51 1 0.0568396 0.373088 0.0687595
55 1 0.181473 0.367833 0.0603461
59 1 0.310436 0.370543 0.0630048
63 1 0.440031 0.382254 0.0554396
1249 1 0.487895 0.243189 0.36724
56 1 0.120696 0.444324 0.06717
60 1 0.250884 0.424598 0.0756031
64 1 0.376377 0.430181 0.0602218
1729 1 0.493416 0.493606 0.371345
655 1 0.43563 0.487033 0.315441
113 1 0.0012167 0.383678 0.125487
519 1 0.192791 0.490749 0.0687582
199 1 0.196017 0.0108024 0.443305
54 1 0.186595 0.427151 0.00250634
66 1 0.072468 0.0656376 0.115514
70 1 0.187628 0.0638779 0.122607
74 1 0.31792 0.0527149 0.125593
78 1 0.438238 0.0667043 0.13541
273 1 0.0027235 0.120805 0.498339
85 1 0.138266 0.132168 0.123909
89 1 0.24781 0.124637 0.12248
93 1 0.377816 0.118593 0.115479
82 1 0.0694754 0.185498 0.12296
86 1 0.197391 0.197537 0.119059
90 1 0.320628 0.186708 0.116308
94 1 0.44857 0.18471 0.135929
101 1 0.130185 0.244044 0.125276
105 1 0.259915 0.245621 0.11346
109 1 0.392104 0.249518 0.128053
1297 1 0.496349 0.127678 0.497953
98 1 0.0728312 0.308179 0.122661
102 1 0.181129 0.310928 0.132346
106 1 0.31329 0.307925 0.118041
110 1 0.448309 0.321446 0.111931
117 1 0.124718 0.367135 0.133167
121 1 0.248302 0.357643 0.11485
125 1 0.377135 0.367585 0.111225
114 1 0.0624303 0.432885 0.127488
122 1 0.3202 0.441047 0.120204
126 1 0.435565 0.436563 0.119506
118 1 0.181309 0.431189 0.120619
50 1 0.0678552 0.439873 -0.00258546
201 1 0.246095 -0.00305233 0.37759
3 1 0.0667707 0.010917 0.0534212
25 1 0.260064 0.121804 0.00270585
137 1 0.239543 0.012211 0.2476
72 1 0.124934 0.060481 0.173493
76 1 0.24622 0.0620851 0.182841
80 1 0.378679 0.0599744 0.19627
83 1 0.0583367 0.135101 0.181344
87 1 0.188123 0.116847 0.189123
91 1 0.316978 0.120738 0.171881
95 1 0.434589 0.12453 0.192338
88 1 0.126255 0.179885 0.189342
92 1 0.253088 0.189621 0.193517
96 1 0.375693 0.18502 0.184432
99 1 0.0651388 0.254667 0.198154
103 1 0.192583 0.253351 0.183644
107 1 0.311267 0.251063 0.177683
111 1 0.442132 0.251845 0.188061
649 1 0.25151 0.498616 0.243175
104 1 0.125918 0.308211 0.19115
108 1 0.245562 0.315329 0.190527
112 1 0.382189 0.311283 0.179839
115 1 0.0572829 0.38515 0.19386
119 1 0.189956 0.378272 0.184679
123 1 0.316555 0.372457 0.170291
127 1 0.451456 0.358328 0.187414
161 1 0.00195793 0.254107 0.253867
120 1 0.120068 0.441433 0.181829
124 1 0.257792 0.432326 0.184898
71 1 0.187816 0.00572214 0.181112
128 1 0.381342 0.436756 0.183742
521 1 0.251514 0.493904 0.00877662
9 1 0.253122 0.00607524 0.00582504
130 1 0.0475216 0.0627119 0.243399
134 1 0.181664 0.0728901 0.251891
138 1 0.30721 0.064611 0.252226
142 1 0.437162 0.0593135 0.25378
149 1 0.115303 0.116153 0.239565
153 1 0.250583 0.12262 0.253352
157 1 0.369494 0.120716 0.254057
146 1 0.0611653 0.184741 0.250544
150 1 0.188128 0.175207 0.241209
154 1 0.312928 0.18313 0.249934
158 1 0.432439 0.195062 0.246039
2 1 0.0750195 0.072443 0.00489518
165 1 0.126019 0.239067 0.252672
169 1 0.245704 0.25573 0.246245
173 1 0.371066 0.252157 0.23925
62 1 0.440307 0.446072 0.00079833
162 1 0.0568355 0.314505 0.251395
166 1 0.174279 0.322788 0.258538
170 1 0.310449 0.317047 0.235195
174 1 0.427752 0.318902 0.252349
181 1 0.119959 0.385528 0.244718
185 1 0.241 0.371358 0.247066
189 1 0.368563 0.377179 0.237829
182 1 0.195119 0.444419 0.239589
186 1 0.307663 0.438612 0.252236
190 1 0.450189 0.428817 0.25287
178 1 0.0576536 0.436821 0.256957
197 1 0.122268 0.0071282 0.377769
309 1 0.132878 0.37194 0.492088
136 1 0.118161 0.043742 0.308888
140 1 0.257058 0.0611546 0.321047
144 1 0.376192 0.0623556 0.319099
159 1 0.435193 0.12555 0.306208
147 1 0.0555661 0.123543 0.2995
151 1 0.178325 0.118384 0.322347
155 1 0.310761 0.121028 0.315624
152 1 0.123471 0.183355 0.306195
156 1 0.24632 0.189507 0.31082
160 1 0.373733 0.183511 0.302366
163 1 0.0577841 0.240819 0.311078
167 1 0.180786 0.241045 0.314999
171 1 0.310699 0.250478 0.297175
175 1 0.432477 0.250544 0.308952
168 1 0.125474 0.30052 0.318341
172 1 0.252307 0.30449 0.315837
176 1 0.355635 0.313154 0.317637
179 1 0.069003 0.365853 0.319197
183 1 0.185846 0.396148 0.305548
187 1 0.305842 0.377181 0.30709
191 1 0.441114 0.374169 0.319291
184 1 0.121968 0.441115 0.313859
188 1 0.25368 0.439362 0.311462
192 1 0.377861 0.430035 0.308037
69 1 0.136161 0.00282477 0.116628
133 1 0.123452 0.00609566 0.238096
77 1 0.383832 0.00211914 0.135934
194 1 0.062172 0.0635261 0.367347
198 1 0.185389 0.0615683 0.378602
202 1 0.312718 0.0597125 0.376092
206 1 0.435625 0.0701006 0.369266
213 1 0.124223 0.118448 0.37721
217 1 0.248106 0.127405 0.380943
221 1 0.364534 0.123994 0.371466
210 1 0.0569511 0.16814 0.374115
214 1 0.190863 0.183008 0.374667
218 1 0.30347 0.192524 0.371465
222 1 0.435478 0.177707 0.371331
229 1 0.120458 0.236756 0.391836
233 1 0.247923 0.250605 0.379926
237 1 0.367669 0.241958 0.374601
226 1 0.0611997 0.299223 0.374539
230 1 0.18322 0.31023 0.373871
234 1 0.306477 0.30859 0.382063
238 1 0.422693 0.311584 0.380046
67 1 0.0532145 0.00374525 0.188165
245 1 0.126569 0.38139 0.38318
249 1 0.245864 0.376838 0.364373
253 1 0.361982 0.37151 0.388058
242 1 0.0561673 0.438453 0.372529
246 1 0.187998 0.441788 0.380619
250 1 0.307558 0.430123 0.3825
254 1 0.431818 0.424314 0.389189
706 1 0.0606668 0.500626 0.31305
265 1 0.260273 0.00356544 0.490808
200 1 0.130875 0.0645178 0.442052
204 1 0.255493 0.0687359 0.43444
208 1 0.366167 0.073933 0.439945
211 1 0.0629085 0.113564 0.435441
215 1 0.189707 0.118826 0.437819
219 1 0.306901 0.131889 0.438699
223 1 0.428918 0.126591 0.44044
216 1 0.138249 0.183829 0.449255
220 1 0.246165 0.187536 0.435699
224 1 0.374127 0.185575 0.439893
227 1 0.0549721 0.236276 0.436877
231 1 0.18977 0.24411 0.435896
235 1 0.319702 0.244602 0.439713
239 1 0.435276 0.243043 0.431088
141 1 0.368587 0.00394138 0.256063
232 1 0.126265 0.299514 0.441909
236 1 0.250683 0.306701 0.446364
240 1 0.368182 0.303029 0.44051
318 1 0.442368 0.429567 0.490275
243 1 0.0627268 0.359075 0.428537
247 1 0.187209 0.366103 0.430593
251 1 0.304344 0.362453 0.444616
255 1 0.427565 0.36771 0.443684
711 1 0.183191 0.50153 0.43636
248 1 0.106907 0.438951 0.438303
252 1 0.254129 0.429288 0.440684
256 1 0.376548 0.446754 0.440481
1204 1 0.499334 0.434773 0.316479
715 1 0.303925 0.497098 0.432594
306 1 0.0519952 0.428748 0.495044
577 1 0.00111342 0.500066 0.128494
266 1 0.312473 0.0700437 0.493873
65 1 0.00729872 0.00304407 0.118434
1172 1 0.502819 0.176699 0.3176
719 1 0.43501 0.494096 0.427124
1217 1 0.491934 0.00965801 0.373879
6 1 0.188141 0.0604702 0.00420966
97 1 0.00875985 0.246601 0.120263
579 1 0.0586761 0.496951 0.197407
305 1 0.000389374 0.360055 0.494726
587 1 0.317445 0.492883 0.184054
310 1 0.182263 0.449039 0.495332
653 1 0.37608 0.493505 0.250674
14 1 0.447985 0.0687082 0.00358424
57 1 0.25904 0.372838 0.00577593
525 1 0.366949 0.496287 0.00445235
298 1 0.312018 0.302742 0.498255
314 1 0.312528 0.431887 0.497599
963 1 0.0702142 0.494231 0.937167
21 1 0.126935 0.136601 0.997332
847 1 0.428296 0.495923 0.674533
264 1 0.127185 0.0608738 0.572292
399 1 0.440585 0.00681116 0.810599
459 1 0.32908 0.00263443 0.931105
1057 1 0.500566 0.252993 0.993312
1393 1 0.490794 0.377416 0.620419
1313 1 0.495063 0.253659 0.501294
284 1 0.248974 0.191738 0.572855
291 1 0.0643083 0.256457 0.569874
971 1 0.312925 0.493204 0.931961
259 1 0.0591504 0.00826335 0.567772
46 1 0.441684 0.318516 0.995188
274 1 0.0704917 0.185686 0.515271
293 1 0.125667 0.242489 0.50932
1281 1 0.498651 0.00526429 0.505433
312 1 0.126288 0.435146 0.554521
1396 1 0.485222 0.440195 0.692781
18 1 0.0598963 0.196219 0.994286
507 1 0.315679 0.376641 0.93208
325 1 0.127734 0.00490163 0.630641
297 1 0.253865 0.234556 0.502442
1364 1 0.495956 0.190341 0.689081
268 1 0.248961 0.0679273 0.572213
272 1 0.375317 0.064548 0.561237
275 1 0.0484377 0.118786 0.563831
341 1 0.125724 0.127154 0.632879
279 1 0.188161 0.122887 0.56189
283 1 0.310755 0.122943 0.558878
287 1 0.44263 0.124409 0.562642
280 1 0.134843 0.180672 0.574679
288 1 0.371907 0.182791 0.561338
295 1 0.184852 0.243078 0.575967
299 1 0.31599 0.249124 0.56265
303 1 0.438363 0.248239 0.557546
296 1 0.13629 0.311121 0.5653
300 1 0.248049 0.309899 0.569814
304 1 0.373042 0.308533 0.554645
323 1 0.0748344 5.4719e-05 0.692379
307 1 0.0797581 0.375387 0.557009
311 1 0.183373 0.376305 0.560547
315 1 0.302884 0.371119 0.558364
319 1 0.442926 0.366832 0.547437
316 1 0.241993 0.439276 0.550263
320 1 0.369721 0.440905 0.558149
771 1 0.0621649 0.492612 0.558288
455 1 0.189364 0.00256292 0.938968
372 1 0.0103103 0.449089 0.694389
61 1 0.376926 0.372773 1.00203
451 1 0.0626065 0.012123 0.942844
285 1 0.379112 0.121109 0.503467
322 1 0.0648958 0.058344 0.633692
326 1 0.190193 0.0614769 0.629353
330 1 0.320823 0.0679279 0.620362
334 1 0.438619 0.0629177 0.629293
345 1 0.254696 0.138591 0.636281
349 1 0.371921 0.127355 0.627198
975 1 0.427144 0.487487 0.931889
338 1 0.0548153 0.193353 0.627239
342 1 0.189261 0.181799 0.637712
346 1 0.314464 0.202554 0.629819
350 1 0.434627 0.197182 0.628767
357 1 0.126581 0.25941 0.627835
361 1 0.24568 0.251031 0.628844
365 1 0.363933 0.266629 0.62856
354 1 0.0605747 0.319045 0.62396
358 1 0.188656 0.314399 0.631027
362 1 0.303774 0.320923 0.626707
366 1 0.434524 0.312466 0.616586
373 1 0.128768 0.37914 0.622051
377 1 0.261415 0.389443 0.627451
381 1 0.370263 0.389151 0.623558
370 1 0.0702244 0.435882 0.642918
374 1 0.185436 0.437981 0.623156
378 1 0.316789 0.448418 0.619524
382 1 0.440694 0.442347 0.619472
449 1 0.0032505 0.0149688 0.858543
281 1 0.244337 0.132914 0.5003
1476 1 0.500612 0.0603621 0.936423
436 1 -0.00210388 0.437109 0.818581
336 1 0.358167 0.00846842 0.763923
328 1 0.130052 0.0569585 0.693145
332 1 0.259577 0.0693153 0.680451
331 1 0.37176 0.0523109 0.684196
339 1 0.0572275 0.133725 0.685728
343 1 0.192369 0.118021 0.688009
347 1 0.310987 0.135261 0.688493
351 1 0.440098 0.115939 0.690772
344 1 0.119675 0.194982 0.679756
348 1 0.254053 0.195952 0.697773
352 1 0.375509 0.191416 0.692054
355 1 0.0680905 0.267124 0.687521
359 1 0.190618 0.246209 0.690101
363 1 0.31684 0.256901 0.693874
367 1 0.436623 0.257046 0.690777
360 1 0.129044 0.329061 0.691534
364 1 0.26304 0.3166 0.692489
368 1 0.379052 0.31621 0.691967
371 1 0.0666574 0.377325 0.696583
375 1 0.203448 0.383882 0.684166
379 1 0.317903 0.374728 0.690074
383 1 0.433139 0.373941 0.672446
376 1 0.129215 0.433271 0.701603
380 1 0.259207 0.452383 0.679511
384 1 0.355784 0.45188 0.69212
262 1 0.192885 0.0603511 0.511677
41 1 0.261536 0.245816 0.999067
45 1 0.382039 0.248955 0.98566
390 1 0.18374 0.0736787 0.749108
461 1 0.385059 0.00872336 0.874229
49 1 0.013082 0.378093 0.997914
398 1 0.429413 0.0625964 0.750578
386 1 0.0637759 0.0766539 0.759719
394 1 0.308182 0.0691169 0.749958
405 1 0.118382 0.129332 0.742247
409 1 0.250068 0.130568 0.74507
413 1 0.374825 0.122747 0.742803
391 1 0.185678 0.00902755 0.825863
402 1 0.0682123 0.200353 0.744318
406 1 0.17951 0.176175 0.748771
410 1 0.312215 0.188776 0.758774
414 1 0.438185 0.1926 0.749636
421 1 0.128702 0.255833 0.749241
425 1 0.260678 0.257752 0.751098
429 1 0.377137 0.25081 0.752823
418 1 0.0678636 0.313254 0.750978
422 1 0.191559 0.313581 0.73825
426 1 0.318372 0.321819 0.74942
430 1 0.439688 0.32649 0.744864
437 1 0.137236 0.373817 0.765547
441 1 0.252049 0.372161 0.752934
434 1 0.0676857 0.440707 0.754151
444 1 0.189128 0.437006 0.753356
442 1 0.307164 0.436156 0.757616
445 1 0.368738 0.387281 0.755148
779 1 0.307756 0.495518 0.553047
10 1 0.330865 0.0670816 0.992339
446 1 0.432401 0.445578 0.752576
1505 1 0.498841 0.249572 0.873884
42 1 0.325014 0.314977 0.98577
400 1 0.374248 0.0685168 0.814016
5 1 0.121566 0.00438725 0.994676
392 1 0.110927 0.0718278 0.824097
396 1 0.244903 0.0736673 0.810125
403 1 0.075864 0.14162 0.810502
407 1 0.181354 0.12482 0.812148
411 1 0.314729 0.123133 0.815191
415 1 0.430706 0.1303 0.803078
408 1 0.136343 0.199609 0.814168
412 1 0.245098 0.176031 0.814667
416 1 0.374311 0.190267 0.815507
419 1 0.0639456 0.25871 0.809268
423 1 0.195122 0.252472 0.811249
427 1 0.311813 0.256958 0.811517
431 1 0.435936 0.24699 0.809887
835 1 0.0748901 0.49769 0.694755
424 1 0.128285 0.308502 0.815767
428 1 0.250681 0.314126 0.816888
432 1 0.375835 0.320079 0.813018
435 1 0.0715552 0.377431 0.805751
439 1 0.195349 0.376409 0.82542
443 1 0.317518 0.372468 0.818031
447 1 0.433914 0.377709 0.807422
404 1 0.00868752 0.19932 0.814923
440 1 0.125056 0.44078 0.813714
907 1 0.247228 0.439181 0.817456
1412 1 0.491535 0.0679323 0.805656
899 1 0.058797 0.496872 0.817609
448 1 0.365915 0.446629 0.814535
258 1 0.0667954 0.0683895 0.50413
454 1 0.178895 0.0745462 0.879628
277 1 0.13217 0.118913 0.500187
450 1 0.0499195 0.0789067 0.871758
458 1 0.323618 0.0699306 0.878875
462 1 0.443786 0.0654008 0.873895
508 1 0.244595 0.447482 0.943898
469 1 0.128336 0.141179 0.878686
473 1 0.247257 0.122289 0.878038
477 1 0.380756 0.128408 0.867255
466 1 0.0685358 0.19656 0.874726
470 1 0.188885 0.198861 0.873327
474 1 0.311204 0.192829 0.87073
478 1 0.44791 0.179891 0.87412
485 1 0.119447 0.256186 0.879572
489 1 0.249939 0.250637 0.877615
493 1 0.374582 0.249032 0.874527
482 1 0.0636566 0.323348 0.868837
486 1 0.18444 0.317961 0.878854
490 1 0.318372 0.317371 0.87426
494 1 0.437119 0.317969 0.866551
513 1 0.00659269 0.486984 0.995773
501 1 0.124887 0.377891 0.87217
505 1 0.248805 0.38004 0.885428
509 1 0.375905 0.381783 0.87323
905 1 0.248942 0.488999 0.750522
498 1 0.0575368 0.430273 0.870858
502 1 0.186403 0.437898 0.874409
506 1 0.315234 0.430815 0.869837
510 1 0.440225 0.431613 0.87134
369 1 0.00639173 0.38325 0.630763
1428 1 0.495651 0.187233 0.804207
503 1 0.190308 0.369652 0.945491
329 1 0.251234 0.00518713 0.625321
290 1 0.0813938 0.307928 0.505325
456 1 0.119637 0.0713452 0.937476
1441 1 0.499808 0.253366 0.745655
460 1 0.250833 0.0680506 0.943984
464 1 0.385225 0.0637553 0.930358
467 1 0.0648454 0.140746 0.930835
471 1 0.183481 0.139066 0.937268
475 1 0.308329 0.123094 0.93882
479 1 0.446579 0.121456 0.932018
261 1 0.127829 0.0153058 0.502263
472 1 0.126965 0.199837 0.942465
476 1 0.25909 0.184668 0.925791
480 1 0.386829 0.183392 0.933218
483 1 0.0504359 0.25239 0.937365
487 1 0.186268 0.256078 0.940841
491 1 0.319945 0.248168 0.932566
495 1 0.439384 0.261395 0.932791
903 1 0.183498 0.501211 0.818786
488 1 0.121291 0.312297 0.942647
492 1 0.257088 0.300935 0.937944
496 1 0.380171 0.319693 0.924824
499 1 0.0683834 0.379253 0.935925
511 1 0.44183 0.375467 0.932499
504 1 0.138356 0.431658 0.943267
512 1 0.374574 0.433583 0.941396
267 1 0.313679 0.0043989 0.55148
420 1 0.00152028 0.321001 0.817393
317 1 0.367328 0.367691 0.501891
401 1 0.00160662 0.133724 0.751549
324 1 0.00366533 0.0706667 0.697358
1332 1 0.492649 0.434051 0.554755
286 1 0.43972 0.188196 0.506388
270 1 0.440424 0.0668041 0.506051
775 1 0.183075 0.498118 0.560909
269 1 0.379388 0.00659428 0.501649
327 1 0.208864 0.0136145 0.695415
468 1 0.000540663 0.189486 0.931493
29 1 0.39172 0.12163 0.988151
294 1 0.19399 0.304219 0.506186
278 1 0.188876 0.189769 0.51321
965 1 0.128491 0.501241 0.88261
289 1 0.00311661 0.24895 0.499081
26 1 0.324641 0.192502 0.988784
1425 1 0.501129 0.125289 0.744925
453 1 0.121505 0.0130871 0.882209
457 1 0.242097 0.0205011 0.878303
263 1 0.184246 0.00397441 0.572463
1377 1 0.491988 0.251197 0.626938
1073 1 0.497901 0.385995 0.990611
837 1 0.126435 0.494792 0.618806
1524 1 0.491742 0.442942 0.931761
271 1 0.433472 0.0087042 0.570483
58 1 0.314102 0.434998 0.991679
38 1 0.2042 0.304209 1.00063
13 1 0.385024 0.00236022 0.993535
313 1 0.245367 0.373537 0.505677
282 1 0.314604 0.179091 0.504495
22 1 0.189673 0.198552 0.997902
301 1 0.375447 0.241543 0.501639
647 1 0.195312 0.507714 0.301325
143 1 0.428741 0.998206 0.318044
558 1 0.43721 0.808792 -0.00246602
539 1 0.312569 0.615609 0.0685666
534 1 0.198581 0.685937 0.00894364
1764 1 0.500042 0.815938 0.431229
796 1 0.251989 0.745596 0.49319
562 1 0.064046 0.947267 0.00641183
826 1 0.319277 0.936412 0.501003
548 1 0.00791403 0.81193 0.0469032
778 1 0.312751 0.563646 0.498282
203 1 0.325421 1.00022 0.442131
790 1 0.189093 0.686885 0.50015
721 1 -0.000620887 0.624136 0.368859
542 1 0.441955 0.684309 0.00882508
131 1 0.0540894 0.997353 0.294408
520 1 0.129576 0.55087 0.0629788
524 1 0.242756 0.570089 0.0727062
528 1 0.376607 0.565274 0.0706026
585 1 0.248636 0.504369 0.138514
531 1 0.0641908 0.621155 0.0575118
535 1 0.198846 0.637186 0.0758462
543 1 0.437003 0.627561 0.0655019
536 1 0.13611 0.688994 0.0636173
540 1 0.266632 0.690265 0.0573502
544 1 0.360503 0.6863 0.0630354
547 1 0.0668615 0.738634 0.0664609
551 1 0.197006 0.747533 0.0593174
555 1 0.316599 0.75136 0.0659758
559 1 0.435241 0.755515 0.0658979
518 1 0.195442 0.55725 0.0134135
552 1 0.124083 0.803921 0.0583643
556 1 0.256558 0.808058 0.0672162
560 1 0.374399 0.827092 0.0622355
1649 1 0.498989 0.873753 0.126679
563 1 0.0727108 0.869745 0.0546199
567 1 0.197124 0.868749 0.0672596
571 1 0.312518 0.877889 0.0655477
575 1 0.440749 0.889566 0.0699606
568 1 0.13129 0.946153 0.0607497
572 1 0.259146 0.938482 0.0475802
576 1 0.377943 0.946044 0.0662765
7 1 0.196353 0.99473 0.0588056
782 1 0.442046 0.557624 0.498071
522 1 0.311484 0.563556 0.00897411
15 1 0.447795 0.992384 0.0609641
578 1 0.0592195 0.560107 0.126299
582 1 0.178025 0.556167 0.129241
586 1 0.316222 0.563777 0.141026
590 1 0.444857 0.557933 0.128165
597 1 0.11957 0.614807 0.118294
601 1 0.257117 0.622419 0.13936
605 1 0.381134 0.628593 0.135272
569 1 0.24582 0.873004 0.00128294
594 1 0.0617789 0.678762 0.123326
598 1 0.191822 0.694829 0.139102
602 1 0.315951 0.676723 0.131042
606 1 0.440172 0.68322 0.139838
1777 1 0.495442 0.868118 0.367957
613 1 0.123195 0.746435 0.121006
617 1 0.259042 0.740446 0.121187
621 1 0.37752 0.74496 0.125912
1780 1 0.489253 0.946819 0.431573
610 1 0.0547963 0.80805 0.112575
614 1 0.180023 0.811127 0.116359
618 1 0.319001 0.814486 0.126873
622 1 0.428502 0.822562 0.127112
629 1 0.119867 0.867468 0.122923
633 1 0.255028 0.896037 0.121277
637 1 0.378778 0.886412 0.122649
740 1 0.00380428 0.819007 0.437255
626 1 0.0729285 0.948298 0.114718
630 1 0.182191 0.931689 0.128916
638 1 0.444571 0.937723 0.132675
707 1 0.0511657 0.499774 0.443702
634 1 0.32218 0.947702 0.1233
763 1 0.310497 0.877221 0.444245
830 1 0.441064 0.948796 0.498757
814 1 0.441275 0.819117 0.495325
592 1 0.374033 0.556248 0.195841
566 1 0.193092 0.937109 0.00686333
584 1 0.116149 0.571621 0.186233
588 1 0.247867 0.564734 0.194483
595 1 0.0539034 0.621965 0.194074
599 1 0.178053 0.625555 0.176131
603 1 0.317078 0.622087 0.191659
607 1 0.433552 0.617771 0.196562
600 1 0.118012 0.692508 0.188874
604 1 0.25019 0.691006 0.193569
608 1 0.375489 0.69729 0.197519
611 1 0.0667213 0.753564 0.177373
615 1 0.175898 0.759685 0.183188
619 1 0.305803 0.751614 0.200909
623 1 0.431697 0.750538 0.187133
616 1 0.112306 0.814545 0.192543
620 1 0.255136 0.809869 0.180236
624 1 0.364233 0.816349 0.195143
627 1 0.0503797 0.865103 0.177663
631 1 0.177624 0.86281 0.182847
635 1 0.304153 0.880972 0.18574
639 1 0.434941 0.884699 0.199274
589 1 0.382434 0.507247 0.128403
632 1 0.120007 0.937814 0.182218
636 1 0.244681 0.940134 0.188488
751 1 0.442311 0.751361 0.428256
640 1 0.370236 0.94035 0.188142
1652 1 0.503607 0.933921 0.194298
643 1 0.0586635 0.555548 0.251215
821 1 0.126848 0.876479 0.503673
1825 1 0.488241 0.754345 0.49638
646 1 0.182913 0.564862 0.244066
650 1 0.307574 0.567126 0.258795
654 1 0.455812 0.558942 0.265206
661 1 0.119165 0.616658 0.253279
665 1 0.247265 0.624522 0.244488
669 1 0.373419 0.632721 0.25025
658 1 0.0594688 0.685851 0.257615
662 1 0.182381 0.682409 0.245606
666 1 0.307911 0.683093 0.258787
670 1 0.4395 0.691991 0.249477
677 1 0.113216 0.751225 0.246876
681 1 0.230447 0.753251 0.246421
685 1 0.373743 0.752819 0.255604
674 1 0.0629549 0.820769 0.253666
678 1 0.175657 0.815132 0.254963
682 1 0.310119 0.808138 0.263225
686 1 0.431167 0.816233 0.256938
747 1 0.308881 0.748925 0.430729
693 1 0.119943 0.876646 0.248425
697 1 0.252063 0.86843 0.256074
701 1 0.357612 0.872005 0.267533
628 1 0.00611683 0.942181 0.167161
690 1 0.0612879 0.930395 0.244281
694 1 0.186678 0.93007 0.240862
702 1 0.429805 0.947666 0.25505
781 1 0.371898 0.502127 0.502385
698 1 0.312182 0.943284 0.243923
984 1 0.139469 0.754489 -0.00195954
79 1 0.447326 0.991219 0.19047
657 1 0.00745748 0.618372 0.266399
565 1 0.137446 0.871982 0.00791325
676 1 -0.00236071 0.811926 0.302809
648 1 0.113759 0.559322 0.324889
652 1 0.247948 0.573838 0.316378
656 1 0.374876 0.573656 0.309997
642 1 0.0635832 0.633473 0.320911
663 1 0.180397 0.616804 0.319208
667 1 0.312453 0.626115 0.317113
671 1 0.443219 0.625026 0.321993
675 1 0.122818 0.680934 0.306535
668 1 0.246559 0.694062 0.308307
672 1 0.373692 0.692299 0.308823
660 1 0.0688157 0.743996 0.31145
679 1 0.172472 0.741105 0.302512
683 1 0.310056 0.739383 0.314959
687 1 0.439614 0.741377 0.315155
680 1 0.118835 0.817883 0.325623
684 1 0.244855 0.804194 0.311152
688 1 0.364205 0.807695 0.32506
798 1 0.437453 0.689479 0.498034
691 1 0.0568926 0.881821 0.311156
695 1 0.187191 0.870467 0.319952
699 1 0.303052 0.881369 0.328206
703 1 0.429354 0.880678 0.312564
696 1 0.123185 0.955337 0.305462
700 1 0.245837 0.932211 0.315229
704 1 0.371027 0.93936 0.317096
794 1 0.304885 0.687664 0.497985
743 1 0.18652 0.749628 0.442672
1540 1 0.493481 0.563227 0.0591474
549 1 0.0799199 0.691543 0.000332342
530 1 0.136793 0.620425 0.016433
645 1 0.127461 0.508911 0.25636
725 1 0.0518548 0.556648 0.373896
710 1 0.184721 0.549337 0.367314
714 1 0.314023 0.562673 0.371294
718 1 0.436188 0.553151 0.365047
664 1 0.124889 0.629687 0.376992
729 1 0.252344 0.636638 0.370026
733 1 0.373978 0.627362 0.369516
722 1 0.0673247 0.699093 0.380499
734 1 0.442391 0.681288 0.38239
1716 1 0.495193 0.945581 0.323354
741 1 0.119757 0.759919 0.378654
745 1 0.250074 0.755861 0.376921
749 1 0.384674 0.751156 0.381079
1761 1 0.497813 0.754178 0.368997
738 1 0.0557241 0.826243 0.373662
742 1 0.19373 0.81472 0.375874
746 1 0.310104 0.824193 0.382288
750 1 0.438002 0.813394 0.369643
757 1 0.120299 0.88412 0.380753
765 1 0.373297 0.876225 0.3774
754 1 0.0627421 0.94379 0.367175
758 1 0.178631 0.946469 0.380357
737 1 0.00981248 0.754634 0.374863
73 1 0.248061 0.993226 0.129493
762 1 0.313063 0.946268 0.383821
766 1 0.430717 0.939839 0.377943
527 1 0.426114 0.498646 0.057887
537 1 0.255861 0.629837 0.00459076
553 1 0.256758 0.751347 0.000104096
561 1 0.00567925 0.89077 0.000926394
712 1 0.128977 0.573343 0.449192
716 1 0.246256 0.561418 0.431383
723 1 0.059946 0.61606 0.43511
735 1 0.432154 0.611696 0.438239
728 1 0.119877 0.686163 0.446246
726 1 0.171185 0.696005 0.371294
730 1 0.319813 0.690923 0.376022
739 1 0.0583765 0.753373 0.439272
744 1 0.119668 0.808948 0.444534
752 1 0.371307 0.816181 0.433106
755 1 0.0594983 0.883458 0.432848
761 1 0.250486 0.87833 0.389078
767 1 0.435757 0.871027 0.425449
760 1 0.120166 0.943238 0.433769
759 1 0.177797 0.873231 0.437397
768 1 0.384034 0.933208 0.44348
581 1 0.114012 0.5022 0.127102
764 1 0.242643 0.939596 0.435025
651 1 0.309032 0.502254 0.313823
1636 1 0.486323 0.82324 0.190694
736 1 0.367666 0.690461 0.449222
720 1 0.375679 0.554399 0.433489
748 1 0.24498 0.810681 0.437978
727 1 0.194776 0.627104 0.428647
731 1 0.305385 0.629264 0.436806
777 1 0.247902 0.50265 0.496237
732 1 0.241417 0.69241 0.424488
625 1 0.00941319 0.87818 0.107862
793 1 0.251051 0.617189 0.494751
717 1 0.373496 0.504127 0.367994
797 1 0.359773 0.629466 0.49608
515 1 0.0519238 0.50168 0.0638191
1713 1 0.49233 0.878166 0.25836
554 1 0.312561 0.821053 -8.35662e-05
1684 1 0.498152 0.685394 0.311593
583 1 0.175984 0.503669 0.188226
1732 1 0.489729 0.555333 0.432167
523 1 0.315057 0.511052 0.0756102
709 1 0.115593 0.513346 0.399021
591 1 0.441541 0.50632 0.185936
541 1 0.382423 0.632026 -0.000875235
1633 1 0.490979 0.760271 0.126809
713 1 0.254342 0.502326 0.370448
564 1 0.00344141 0.945829 0.0605884
785 1 0.0107476 0.626073 0.497832
1604 1 0.500471 0.565978 0.19119
517 1 0.125276 0.497507 0.000313993
1617 1 0.492853 0.624164 0.133024
532 1 0.00211651 0.69526 0.0492039
139 1 0.309059 0.996124 0.318986
195 1 0.0605437 0.998355 0.436075
809 1 0.322188 0.801611 0.496814
822 1 0.182233 0.946405 0.495866
780 1 0.253771 0.570977 0.559555
909 1 0.377603 0.507662 0.757314
789 1 0.10607 0.629271 0.503056
841 1 0.251839 0.510246 0.615674
1796 1 0.495738 0.565295 0.564877
787 1 0.0569854 0.620686 0.571932
791 1 0.193512 0.625599 0.559189
801 1 0.0053638 0.757116 0.506809
820 1 0.000574181 0.939143 0.561167
770 1 0.063067 0.554589 0.501048
792 1 0.13564 0.687608 0.562247
774 1 0.18506 0.567224 0.501398
1012 1 0.00360339 0.942421 0.938266
545 1 0.00934529 0.752078 0.991204
843 1 0.311444 0.515807 0.693829
967 1 0.184596 0.501648 0.948217
783 1 0.44431 0.498271 0.556232
818 1 0.0616076 0.936949 0.504041
911 1 0.438056 0.506265 0.822041
819 1 0.0673747 0.886754 0.572439
2017 1 0.495876 0.738868 0.883746
802 1 0.0613761 0.822067 0.502956
970 1 0.316644 0.513339 0.812659
829 1 0.376741 0.872077 0.501031
825 1 0.247117 0.874786 0.505855
776 1 0.124403 0.566443 0.56371
784 1 0.373432 0.564904 0.55439
795 1 0.31267 0.625493 0.561938
799 1 0.438582 0.6251 0.554818
916 1 0.00813431 0.694919 0.833338
859 1 0.251428 0.685921 0.557677
800 1 0.377221 0.692728 0.560773
803 1 0.0640161 0.742145 0.564211
807 1 0.191486 0.738682 0.56147
811 1 0.314282 0.744963 0.553901
815 1 0.439686 0.74602 0.563973
808 1 0.136578 0.800504 0.577641
812 1 0.2489 0.808362 0.560982
816 1 0.386543 0.814366 0.558423
810 1 0.312017 0.877775 0.55763
831 1 0.444236 0.878684 0.552647
824 1 0.1243 0.94762 0.566105
823 1 0.182472 0.891751 0.558537
828 1 0.247977 0.942137 0.55453
827 1 0.378446 0.942119 0.556528
834 1 0.0632004 0.556061 0.631624
838 1 0.197231 0.56778 0.627206
387 1 0.0691393 0.995796 0.813002
996 1 0.0128522 0.819035 0.95092
842 1 0.316071 0.562761 0.619539
846 1 0.434959 0.565013 0.622332
1908 1 0.494843 0.93208 0.68192
853 1 0.1284 0.627793 0.618796
857 1 0.255423 0.622236 0.621604
861 1 0.38033 0.62347 0.612496
932 1 0.00612711 0.822086 0.814831
850 1 0.0664989 0.678164 0.630036
854 1 0.192936 0.676144 0.623923
858 1 0.312926 0.690913 0.619922
862 1 0.437375 0.694132 0.631958
869 1 0.131309 0.734787 0.627819
873 1 0.253986 0.744222 0.618571
877 1 0.368171 0.749897 0.615805
1828 1 0.498091 0.813792 0.559268
866 1 0.0729545 0.799032 0.623381
874 1 0.30963 0.804 0.627717
878 1 0.431523 0.805843 0.627575
885 1 0.115768 0.863728 0.630025
870 1 0.197001 0.80157 0.63652
890 1 0.248233 0.874389 0.626375
893 1 0.374289 0.878875 0.614822
882 1 0.0716537 0.948114 0.628445
886 1 0.197966 0.94435 0.638101
948 1 0.0122638 0.934042 0.810805
333 1 0.313879 0.950165 0.626318
832 1 0.435742 0.942846 0.621843
463 1 0.444492 1.00217 0.937092
894 1 0.374957 0.999945 0.62206
1537 1 0.49684 0.505258 0.992088
840 1 0.125658 0.569579 0.690421
844 1 0.240246 0.562479 0.710502
848 1 0.382589 0.57474 0.685826
2004 1 0.491647 0.683268 0.943445
851 1 0.0568817 0.62939 0.694172
855 1 0.186221 0.634954 0.698841
922 1 0.306033 0.619969 0.690012
863 1 0.43636 0.637858 0.688882
786 1 0.0587366 0.698118 0.499981
856 1 0.121444 0.683259 0.687652
860 1 0.252381 0.684785 0.677399
864 1 0.366021 0.678163 0.679799
945 1 0.00313053 0.878448 0.748024
867 1 0.0497088 0.753423 0.695976
871 1 0.190843 0.733065 0.684124
875 1 0.311966 0.743717 0.679226
879 1 0.433597 0.745154 0.692491
845 1 0.374636 0.504649 0.613074
872 1 0.125857 0.794474 0.686057
876 1 0.257578 0.810651 0.690197
880 1 0.366953 0.80116 0.68713
883 1 0.0622207 0.868384 0.692648
887 1 0.184598 0.871028 0.675735
891 1 0.324179 0.866029 0.687782
895 1 0.424631 0.863878 0.685375
888 1 0.125033 0.922804 0.689072
892 1 0.259471 0.922654 0.704082
896 1 0.373008 0.934407 0.679341
1409 1 0.495371 0.99053 0.741872
1860 1 0.477859 0.569695 0.693405
1905 1 0.47908 0.869997 0.627236
898 1 0.0536308 0.568918 0.756907
902 1 0.170895 0.571149 0.755748
906 1 0.327273 0.56863 0.755392
910 1 0.425744 0.572312 0.74986
917 1 0.114898 0.632679 0.758281
921 1 0.25023 0.633657 0.752902
925 1 0.373526 0.640657 0.755523
397 1 0.30924 0.991117 0.690897
914 1 0.0403239 0.701924 0.757977
918 1 0.176453 0.6892 0.764916
937 1 0.30675 0.696259 0.743712
926 1 0.443344 0.68196 0.755605
933 1 0.105755 0.745055 0.757711
934 1 0.236809 0.744612 0.750859
941 1 0.372673 0.748452 0.753034
972 1 0.251337 0.555954 0.954516
930 1 0.0640323 0.823257 0.760042
889 1 0.183885 0.804356 0.75672
938 1 0.307012 0.787107 0.748753
942 1 0.445107 0.807814 0.75303
949 1 0.12895 0.869213 0.748553
953 1 0.22994 0.868939 0.760291
957 1 0.382311 0.868553 0.749115
950 1 0.18631 0.934214 0.746374