LAMMPS (15 Sep 2022)
OMP_NUM_THREADS environment is not set. Defaulting to 1 thread. (src/comm.cpp:98)
  using 1 OpenMP thread(s) per MPI task
# 2d WCA system, random initial configuration

#variable density equal 0.5
variable initial_temperature equal 3.0
variable final_temperature equal 0.1
variable dt equal 0.01
variable tau equal 100*${dt}
variable tau equal 100*0.01
variable thermo_time equal 50000*${dt}
variable thermo_time equal 50000*0.01
variable equil_steps equal 50000
variable run_steps equal 100000

units           lj
atom_style      atomic
dimension       3

lattice         fcc ${density}
lattice         fcc 1.5
Lattice spacing in x,y,z = 1.3867225 1.3867225 1.3867225
region          box block 0 8 0 8 0 8
# number of atom types
create_box      1 box
Created orthogonal box = (0 0 0) to (11.09378 11.09378 11.09378)
  2 by 2 by 2 MPI processor grid
create_atoms    1 box
Created 2048 atoms
  using lattice units in orthogonal box = (0 0 0) to (11.09378 11.09378 11.09378)
  create_atoms CPU = 0.000 seconds
mass 1 1.0

velocity all create ${initial_temperature} 12345
velocity all create 3 12345

pair_style      lj/cut 1.0
#type_1 type_2 epsilon sigma cutoff
pair_coeff      1 1 10.0 0.89089871814 1.0
pair_modify shift yes

timestep ${dt}
timestep 0.01
thermo ${thermo_time}
thermo 500

fix 1 all nvt temp ${initial_temperature} ${initial_temperature} ${tau}
fix 1 all nvt temp 3 ${initial_temperature} ${tau}
fix 1 all nvt temp 3 3 ${tau}
fix 1 all nvt temp 3 3 1
run ${equil_steps}
run 50000
Generated 0 of 0 mixed pair_coeff terms from geometric mixing rule
Neighbor list info ...
  update: every = 1 steps, delay = 0 steps, check = yes
  max neighbors/atom: 2000, page size: 100000
  master list distance cutoff = 1.3
  ghost atom cutoff = 1.3
  binsize = 0.65, bins = 18 18 18
  1 neighbor lists, perpetual/occasional/extra = 1 0 0
  (1) pair lj/cut, perpetual
      attributes: half, newton on
      pair build: half/bin/atomonly/newton
      stencil: half/bin/3d
      bin: standard
Per MPI rank memory allocation (min/avg/max) = 3.074 | 3.074 | 3.074 Mbytes
   Step          Temp          E_pair         E_mol          TotEng         Press     
         0   3              0.9375         0              5.4353027      55.122803    
       500   2.7068814      5.53597        0              9.5943095      109.69031    
      1000   3.018049       5.9185893      0              10.443452      114.50807    
      1500   3.0866915      6.0698335      0              10.69761       116.30167    
      2000   3.037202       6.0019254      0              10.555504      115.67532    
      2500   2.9552872      6.0054682      0              10.436234      115.383      
      3000   3.0067015      5.9416902      0              10.44954       114.85752    
      3500   3.0051562      5.918014       0              10.423547      114.80009    
      4000   3.0202796      5.9957656      0              10.523973      115.34669    
      4500   2.9874262      6.0654201      0              10.544371      115.9407     
      5000   3.0201737      6.1131207      0              10.641169      116.82214    
      5500   3.1013064      6.0451634      0              10.694852      116.17028    
      6000   3.1232649      6.0395727      0              10.722182      115.93732    
      6500   3.0851916      5.975445       0              10.600973      115.23614    
      7000   3.059263       6.079811       0              10.666465      116.77896    
      7500   3.0229174      6.2918288      0              10.823991      118.48747    
      8000   3.0426906      6.1155862      0              10.677394      116.71562    
      8500   3.0822708      6.0835293      0              10.704678      116.29106    
      9000   3.0489436      6.1502033      0              10.721386      116.94591    
      9500   3.0879622      6.0608774      0              10.690559      116.15131    
     10000   3.0396512      6.056805       0              10.614055      116.17583    
     10500   3.0844292      6.2157701      0              10.840155      118.21936    
     11000   3.0630897      6.0640203      0              10.656411      116.22421    
     11500   2.9605772      6.2496761      0              10.688374      118.04216    
     12000   3.0629495      6.0829923      0              10.675173      116.5056     
     12500   3.1253902      6.0096291      0              10.695425      115.68869    
     13000   3.1783838      5.9038189      0              10.669067      114.82156    
     13500   3.2157254      5.9390041      0              10.760237      115.1497     
     14000   3.0142615      6.1265459      0              10.64573       116.86764    
     14500   3.0892692      6.0905802      0              10.722221      116.77427    
     15000   3.0810178      6.1495309      0              10.768801      117.19065    
     15500   3.0560252      6.0366483      0              10.618448      115.60525    
     16000   3.1039726      6.0738463      0              10.727532      116.51686    
     16500   3.0590271      6.1312463      0              10.717546      116.75817    
     17000   3.0545305      6.0588115      0              10.63837       116.00225    
     17500   3.116831       5.9967277      0              10.669691      115.9096     
     18000   3.0472015      6.1594072      0              10.727978      117.42199    
     18500   3.0754305      6.0967774      0              10.707671      116.64673    
     19000   2.9964417      6.1987252      0              10.691193      117.82982    
     19500   3.053868       6.0912769      0              10.669842      116.28509    
     20000   3.1006595      6.1315701      0              10.780288      116.94644    
     20500   2.9587172      6.3093405      0              10.745249      118.38653    
     21000   3.1074858      6.0143089      0              10.673262      115.81755    
     21500   2.9974084      6.2382294      0              10.732147      118.14266    
     22000   3.0184257      6.1810414      0              10.706469      117.26883    
     22500   3.126719       6.0388949      0              10.726683      116.08628    
     23000   3.0595329      6.1018337      0              10.688892      116.7059     
     23500   3.121149       6.1214626      0              10.8009        116.75896    
     24000   3.0478927      6.0959856      0              10.665592      116.53359    
     24500   3.0708954      6.0754464      0              10.67954       116.19921    
     25000   3.0406115      6.1590998      0              10.71779       117.09416    
     25500   3.0823571      6.065085       0              10.686363      116.71414    
     26000   3.0406335      6.0481308      0              10.606854      115.76215    
     26500   3.0857483      6.1002151      0              10.726577      116.67778    
     27000   3.135624       6.0248995      0              10.726039      115.74158    
     27500   3.018672       6.1318238      0              10.657621      116.53701    
     28000   3.0596793      6.0958125      0              10.68309       116.35836    
     28500   3.1052466      6.0847597      0              10.740355      116.63862    
     29000   3.041061       6.0891931      0              10.648557      116.33952    
     29500   3.1053297      5.9599464      0              10.615667      115.26066    
     30000   3.069585       6.1468389      0              10.748968      116.93222    
     30500   3.0196342      6.2373719      0              10.764612      118.13901    
     31000   3.0873229      5.9599179      0              10.588641      114.64664    
     31500   3.0862934      6.123727       0              10.750907      116.7849     
     32000   3.1205755      6.0314133      0              10.709991      116.04331    
     32500   3.0330073      6.0891625      0              10.636452      116.71972    
     33000   3.1378477      5.9831631      0              10.687637      115.18003    
     33500   3.1001447      6.0408061      0              10.688753      116.00185    
     34000   3.0729581      6.1361433      0              10.74333       117.19075    
     34500   3.142262       6.0159825      0              10.727074      115.86069    
     35000   2.9874818      6.2593049      0              10.73834       118.22693    
     35500   3.0713948      5.9948499      0              10.599693      115.51975    
     36000   3.0125623      6.1524071      0              10.669044      117.14715    
     36500   3.1025447      5.9998791      0              10.651424      115.80671    
     37000   3.0428393      6.1241199      0              10.68615       117.0699     
     37500   3.0259027      6.115889       0              10.652527      116.95438    
     38000   3.0765652      6.160499       0              10.773093      117.25148    
     38500   3.0495013      6.0848258      0              10.656844      116.37417    
     39000   3.1592381      5.9980266      0              10.73457       115.65345    
     39500   3.0765347      6.0686806      0              10.681229      116.33845    
     40000   3.0864999      6.1075728      0              10.735062      116.64334    
     40500   3.1050864      6.0229203      0              10.678276      115.79244    
     41000   3.1006353      6.0206316      0              10.669314      115.54366    
     41500   3.0726368      6.1307982      0              10.737503      117.01443    
     42000   3.0922521      6.1243286      0              10.760442      116.60818    
     42500   3.064706       6.1162211      0              10.711036      116.9201     
     43000   3.0636218      6.0465693      0              10.639758      116.10728    
     43500   3.0767599      6.1025583      0              10.715445      116.62627    
     44000   3.0443207      6.0586194      0              10.622871      116.2748     
     44500   3.0167678      6.1614385      0              10.684381      117.27783    
     45000   3.1631307      6.0219581      0              10.764337      115.98946    
     45500   3.044381       6.1477636      0              10.712105      116.82154    
     46000   2.9801005      6.1482155      0              10.616184      117.0777     
     46500   2.993754       6.3086812      0              10.797119      119.11823    
     47000   3.1178152      6.0588806      0              10.73332       116.56701    
     47500   3.0779339      6.0284833      0              10.64313       115.7305     
     48000   3.0175212      6.1990706      0              10.723142      117.93443    
     48500   3.0934306      6.0864255      0              10.724306      116.69356    
     49000   3.07966        6.0785279      0              10.695762      116.30077    
     49500   3.0416858      6.0855393      0              10.64584       116.39006    
     50000   3.1646598      6.0639363      0              10.808608      116.60206    
Loop time of 4.62377 on 8 procs for 50000 steps with 2048 atoms

Performance: 9343033.569 tau/day, 10813.696 timesteps/s, 22.146 Matom-step/s
99.6% CPU use with 8 MPI tasks x 1 OpenMP threads

MPI task timing breakdown:
Section |  min time  |  avg time  |  max time  |%varavg| %total
---------------------------------------------------------------
Pair    | 0.9414     | 0.96425    | 1.0358     |   2.9 | 20.85
Neigh   | 1.5741     | 1.7574     | 1.9464     |  11.3 | 38.01
Comm    | 1.2872     | 1.465      | 1.6237     |  11.5 | 31.68
Output  | 0.0016998  | 0.0020545  | 0.0044611  |   2.0 |  0.04
Modify  | 0.25753    | 0.27056    | 0.28301    |   1.6 |  5.85
Other   |            | 0.1645     |            |       |  3.56

Nlocal:            256 ave         266 max         246 min
Histogram: 1 0 2 0 1 1 0 1 0 2
Nghost:        413.875 ave         422 max         404 min
Histogram: 1 2 0 0 0 1 0 2 0 2
Neighs:         1575.5 ave        1652 max        1504 min
Histogram: 1 2 0 1 0 1 0 1 0 2

Total # of neighbors = 12604
Ave neighs/atom = 6.1542969
Neighbor list builds = 20710
Dangerous builds = 0

unfix 1
dump           1 all atom ${run_steps} 3dWCA_T${final_temperature}_d${density}_N${run_steps}.lammpstrj
dump           1 all atom 100000 3dWCA_T${final_temperature}_d${density}_N${run_steps}.lammpstrj
dump           1 all atom 100000 3dWCA_T0.1_d${density}_N${run_steps}.lammpstrj
dump           1 all atom 100000 3dWCA_T0.1_d1.5_N${run_steps}.lammpstrj
dump           1 all atom 100000 3dWCA_T0.1_d1.5_N100000.lammpstrj
dump           2 all dcd ${thermo_time} 3dWCA_T${final_temperature}_d${density}_N${run_steps}.dcd
dump           2 all dcd 500 3dWCA_T${final_temperature}_d${density}_N${run_steps}.dcd
dump           2 all dcd 500 3dWCA_T0.1_d${density}_N${run_steps}.dcd
dump           2 all dcd 500 3dWCA_T0.1_d1.5_N${run_steps}.dcd
dump           2 all dcd 500 3dWCA_T0.1_d1.5_N100000.dcd
fix 1 all nvt temp ${initial_temperature} ${final_temperature} ${tau}
fix 1 all nvt temp 3 ${final_temperature} ${tau}
fix 1 all nvt temp 3 0.1 ${tau}
fix 1 all nvt temp 3 0.1 1

run ${run_steps}
run 100000
Generated 0 of 0 mixed pair_coeff terms from geometric mixing rule
Per MPI rank memory allocation (min/avg/max) = 3.13 | 3.13 | 3.13 Mbytes
   Step          Temp          E_pair         E_mol          TotEng         Press     
     50000   3.1646598      6.0639363      0              10.808608      116.60206    
     50500   3.1121847      6.0304784      0              10.696476      116.01184    
     51000   3.0281903      5.9437272      0              10.483795      115.17255    
     51500   3.0254934      6.0090866      0              10.545111      115.68975    
     52000   3.027198       5.9495182      0              10.488098      115.24386    
     52500   3.0330689      5.9457686      0              10.49315       114.82833    
     53000   3.0178741      5.8212566      0              10.345857      113.40068    
     53500   2.9441927      5.9728198      0              10.386952      114.90434    
     54000   2.9386776      5.8231438      0              10.229008      113.55462    
     54500   2.9034031      5.8867357      0              10.239714      114.31225    
     55000   2.8388649      5.9764077      0              10.232626      114.78172    
     55500   2.8268524      5.8411962      0              10.079404      113.47254    
     56000   2.9089963      5.70404        0              10.065404      111.96401    
     56500   2.8731036      5.7969004      0              10.104452      113.26405    
     57000   2.9126102      5.5521028      0              9.9188849      110.53834    
     57500   2.8623155      5.6437886      0              9.9351655      111.35305    
     58000   2.8220661      5.6145006      0              9.8455328      111.04735    
     58500   2.8318467      5.5740133      0              9.8197093      110.42556    
     59000   2.7658371      5.7040811      0              9.850811       112.10735    
     59500   2.7720092      5.6028614      0              9.7588448      110.94474    
     60000   2.7891844      5.4532354      0              9.6349692      108.60864    
     60500   2.7748201      5.5052366      0              9.6654344      109.49016    
     61000   2.7123855      5.5293549      0              9.5959465      110.00511    
     61500   2.7113209      5.4936419      0              9.5586374      109.60102    
     62000   2.6646931      5.4800937      0              9.4751817      108.98747    
     62500   2.6653955      5.481841       0              9.4779821      108.92221    
     63000   2.6300988      5.4128869      0              9.3561088      108.46823    
     63500   2.6529692      5.3674315      0              9.3449422      107.81786    
     64000   2.6878132      5.2733505      0              9.3031017      106.78989    
     64500   2.5760588      5.43303        0              9.2952315      108.54931    
     65000   2.6091026      5.2607845      0              9.1725274      106.69111    
     65500   2.637585       5.2406283      0              9.195074       106.64942    
     66000   2.5865617      5.2963273      0              9.1742754      107.00149    
     66500   2.5630158      5.2243245      0              9.0669711      106.10034    
     67000   2.5483733      5.2057633      0              9.0264567      106.0082     
     67500   2.5522473      5.171227       0              8.9977286      105.44806    
     68000   2.4503039      5.2534549      0              8.9271161      106.30878    
     68500   2.4707547      5.1600691      0              8.8643915      105.18196    
     69000   2.4568758      5.1324938      0              8.816008       104.83623    
     69500   2.5187249      4.9917193      0              8.7679619      103.68433    
     70000   2.4554496      5.047327       0              8.7287029      104.25978    
     70500   2.422708       5.0565512      0              8.6888387      104.01782    
     71000   2.3845857      5.0622565      0              8.6373885      103.76366    
     71500   2.4202733      4.9873162      0              8.6159535      103.28513    
     72000   2.4292791      4.9250862      0              8.5672256      102.68151    
     72500   2.4137284      4.8537318      0              8.4725566      101.49738    
     73000   2.338114       4.9533258      0              8.4587843      102.44717    
     73500   2.335932       4.8991696      0              8.4013567      102.21794    
     74000   2.3235788      4.8792022      0              8.3628685      102.14562    
     74500   2.2797982      4.9334242      0              8.3514517      102.42438    
     75000   2.3291517      4.7956714      0              8.2876931      101.09914    
     75500   2.3035676      4.7835533      0              8.2372175      100.35651    
     76000   2.263026       4.7937609      0              8.1866424      100.82409    
     76500   2.2695423      4.7031052      0              8.1057564      99.835023    
     77000   2.2635375      4.6859787      0              8.0796271      99.412245    
     77500   2.2680974      4.6311843      0              8.0316692      99.03935     
     78000   2.2414885      4.6021625      0              7.9627535      98.47472     
     78500   2.209493       4.6299869      0              7.9426081      98.69161     
     79000   2.160595       4.6327083      0              7.8720183      98.86997     
     79500   2.1570395      4.5801126      0              7.814092       98.159922    
     80000   2.1366556      4.6105529      0              7.8139714      98.073053    
     80500   2.1313168      4.5510888      0              7.746503       97.996534    
     81000   2.1122389      4.4916979      0              7.6585092      97.054441    
     81500   2.0140957      4.5708562      0              7.5905246      97.888926    
     82000   2.0498703      4.4045771      0              7.4778811      95.769706    
     82500   1.9873009      4.5266462      0              7.506142       97.397925    
     83000   1.9951413      4.4444292      0              7.4356798      96.127062    
     83500   2.0418063      4.4127884      0              7.4740025      96.298907    
     84000   1.9889213      4.2227479      0              7.2046731      93.791508    
     84500   1.9906803      4.3672951      0              7.3518576      95.530448    
     85000   1.9703949      4.3396125      0              7.2937616      95.197063    
     85500   2.0138903      4.3478347      0              7.3671951      94.917924    
     86000   1.9635917      4.2888954      0              7.2328447      94.558435    
     86500   2.0086387      4.230094       0              7.2415808      94.0201      
     87000   1.9198566      4.2523661      0              7.1307449      94.046016    
     87500   1.9883865      4.3216805      0              7.3028038      95.125841    
     88000   1.9012385      4.1552803      0              7.0057455      92.539507    
     88500   1.9285673      4.2337687      0              7.1252071      93.75716     
     89000   1.9080177      4.0756026      0              6.9362316      91.875578    
     89500   1.8261125      4.2352903      0              6.9731216      93.233358    
     90000   1.8610487      4.1415403      0              6.9317503      92.609208    
     90500   1.8032512      4.1070082      0              6.8105642      92.033336    
     91000   1.8458632      4.1630227      0              6.9304654      92.853549    
     91500   1.7918076      4.0076652      0              6.6940642      90.700454    
     92000   1.7716639      4.054139       0              6.7103372      91.556364    
     92500   1.7779173      3.9934487      0              6.6590224      90.705521    
     93000   1.7262929      3.8923062      0              6.4804811      89.503498    
     93500   1.7414283      3.9206817      0              6.5315488      89.843736    
     94000   1.7462825      3.8846477      0              6.5027925      89.285824    
     94500   1.7257098      3.8349729      0              6.4222737      88.716692    
     95000   1.6419236      3.8545494      0              6.3162321      88.883964    
     95500   1.6753445      3.8643351      0              6.3761248      88.950564    
     96000   1.6886654      3.6593257      0              6.1910869      86.52943     
     96500   1.6633682      3.786042       0              6.279876       88.085199    
     97000   1.6069298      3.715092       0              6.1243097      87.094422    
     97500   1.6207354      3.6412974      0              6.0712134      86.000105    
     98000   1.6077671      3.676947       0              6.0874201      86.522883    
     98500   1.585826       3.6615157      0              6.0390933      86.368466    
     99000   1.5787406      3.693624       0              6.0605785      86.659106    
     99500   1.54733        3.5282389      0              5.8481006      84.724056    
    100000   1.5626764      3.6000766      0              5.9429467      85.731764    
    100500   1.5185341      3.5279168      0              5.8046058      84.844625    
    101000   1.5407266      3.5798813      0              5.8898427      85.359201    
    101500   1.4720522      3.493482       0              5.7004822      84.15569     
    102000   1.5076836      3.5498731      0              5.8102942      84.569909    
    102500   1.4627489      3.4297506      0              5.6228025      83.232754    
    103000   1.4523985      3.477937       0              5.6554709      83.869812    
    103500   1.4076066      3.4476159      0              5.5579949      83.484715    
    104000   1.4234685      3.4876915      0              5.6218517      83.889674    
    104500   1.4045532      3.372547       0              5.4783481      82.428333    
    105000   1.4252845      3.4069147      0              5.5437975      83.125728    
    105500   1.3660616      3.3070831      0              5.355175       81.633593    
    106000   1.3740207      3.3331692      0              5.3931939      81.832421    
    106500   1.3277722      3.3469402      0              5.337626       82.029601    
    107000   1.3219691      3.2306543      0              5.2126396      80.587499    
    107500   1.3200285      3.3037623      0              5.2828383      81.732478    
    108000   1.250978       3.2310988      0              5.1066496      80.593357    
    108500   1.2905474      3.2634357      0              5.1983115      81.110604    
    109000   1.3355173      3.1065167      0              5.1088145      79.076121    
    109500   1.243987       3.1558027      0              5.0208721      79.587079    
    110000   1.2509775      3.1478207      0              5.0233707      79.56586     
    110500   1.2032387      3.1098257      0              4.9138025      79.138744    
    111000   1.2418095      3.0495644      0              4.9113691      78.351584    
    111500   1.2162051      3.077919       0              4.9013358      78.629749    
    112000   1.1971555      3.0339233      0              4.8287797      77.926928    
    112500   1.1683809      2.9998855      0              4.7516011      77.689745    
    113000   1.1633897      3.0185458      0              4.7627782      77.717921    
    113500   1.13455        2.9199844      0              4.6209784      76.54501     
    114000   1.1591586      2.941326       0              4.679215       76.818956    
    114500   1.0891556      2.9573856      0              4.5903213      76.834399    
    115000   1.1498118      2.9272849      0              4.6511604      76.256011    
    115500   1.1045324      2.8185034      0              4.4744931      75.117914    
    116000   1.0930169      2.8747295      0              4.5134543      75.861938    
    116500   1.0434225      2.7884793      0              4.3528488      74.709769    
    117000   1.0455702      2.7996022      0              4.3671917      74.696964    
    117500   1.0188605      2.7733406      0              4.3008851      74.250582    
    118000   1.0190524      2.7154465      0              4.2432787      73.730818    
    118500   0.99391367     2.7194017      0              4.2095443      73.810397    
    119000   1.0020928      2.6751895      0              4.1775947      73.137972    
    119500   0.97253621     2.6785246      0              4.1366166      73.264104    
    120000   0.94636768     2.6120379      0              4.0308963      72.087604    
    120500   0.96111965     2.5974589      0              4.0384344      72.108761    
    121000   0.94742813     2.5964887      0              4.0169369      72.080613    
    121500   0.94654896     2.5305175      0              3.9496477      71.15067     
    122000   0.949444       2.5781464      0              4.001617       71.632474    
    122500   0.87345801     2.5421384      0              3.8516857      71.270189    
    123000   0.88298905     2.5033969      0              3.8272337      70.560089    
    123500   0.86513881     2.482636       0              3.7797106      70.384956    
    124000   0.87180973     2.4300526      0              3.7371286      69.6008      
    124500   0.833899       2.4331118      0              3.6833496      69.837786    
    125000   0.81355912     2.4151262      0              3.634869       69.417161    
    125500   0.80399874     2.3947141      0              3.6001234      69.238313    
    126000   0.81287676     2.3001685      0              3.5188883      67.936379    
    126500   0.79899411     2.3459726      0              3.5438786      68.524951    
    127000   0.77576632     2.2518517      0              3.414933       67.29772     
    127500   0.77500377     2.2701706      0              3.4321086      67.36425     
    128000   0.73661111     2.2101269      0              3.3145041      66.632425    
    128500   0.72336345     2.2232361      0              3.3077515      66.842119    
    129000   0.72120232     2.1679133      0              3.2491885      66.043573    
    129500   0.70136473     2.137117       0              3.1886504      65.721659    
    130000   0.67515396     2.1105962      0              3.1228326      65.252589    
    130500   0.66102195     2.1076251      0              3.0986739      65.153279    
    131000   0.64396859     2.0665428      0              3.032024       64.592776    
    131500   0.635884       2.0772299      0              3.0305902      64.800385    
    132000   0.5969755      2.0256466      0              2.9206726      64.019403    
    132500   0.61112299     1.994118       0              2.9103549      63.667645    
    133000   0.6044599      1.9428783      0              2.8491254      62.940505    
    133500   0.58999924     1.9298341      0              2.8144008      62.617       
    134000   0.57161073     1.9137957      0              2.7707931      62.474379    
    134500   0.55282649     1.918053       0              2.7468878      62.574958    
    135000   0.52603062     1.8848744      0              2.6735351      62.090184    
    135500   0.54335435     1.8676437      0              2.6822773      61.769054    
    136000   0.50612075     1.8187529      0              2.5775634      61.209585    
    136500   0.49099685     1.8196018      0              2.5557375      61.034039    
    137000   0.47991128     1.7660522      0              2.4855676      60.488331    
    137500   0.47203635     1.7545057      0              2.4622145      60.379349    
    138000   0.45097865     1.7185505      0              2.3946882      59.777403    
    138500   0.43362628     1.6947429      0              2.3448648      59.392469    
    139000   0.43171989     1.6435087      0              2.2907723      58.674693    
    139500   0.40334044     1.646239       0              2.2509542      58.700654    
    140000   0.39416992     1.6198972      0              2.2108634      58.33751     
    140500   0.37654788     1.5970127      0              2.1615588      58.114172    
    141000   0.35620261     1.5726701      0              2.1067131      57.739016    
    141500   0.34889589     1.5514726      0              2.0745609      57.410977    
    142000   0.3309904      1.5249515      0              2.0211947      57.074608    
    142500   0.32072523     1.4926404      0              1.9734933      56.633261    
    143000   0.30227921     1.4746099      0              1.9278073      56.447662    
    143500   0.28488979     1.452715       0              1.879841       56.104473    
    144000   0.27136924     1.4254431      0              1.8322982      55.722392    
    144500   0.26376539     1.3863131      0              1.781768       55.282882    
    145000   0.24774985     1.3656807      0              1.737124       55.034868    
    145500   0.24219014     1.32299        0              1.6860978      54.531604    
    146000   0.21469473     1.3192391      0              1.641124       54.386615    
    146500   0.2028773      1.2894607      0              1.5936281      54.079588    
    147000   0.18815456     1.2643695      0              1.5464636      53.804606    
    147500   0.17591155     1.2352919      0              1.4990303      53.467701    
    148000   0.16025621     1.2099609      0              1.4502278      53.177788    
    148500   0.14624766     1.1856968      0              1.4049611      52.919467    
    149000   0.13294957     1.1589365      0              1.3582635      52.644958    
    149500   0.11987444     1.1316551      0              1.3113789      52.375914    
    150000   0.10240651     1.1118625      0              1.2653973      52.162924    
Loop time of 6.72594 on 8 procs for 100000 steps with 2048 atoms

Performance: 12845784.103 tau/day, 14867.806 timesteps/s, 30.449 Matom-step/s
99.5% CPU use with 8 MPI tasks x 1 OpenMP threads

MPI task timing breakdown:
Section |  min time  |  avg time  |  max time  |%varavg| %total
---------------------------------------------------------------
Pair    | 1.6428     | 1.7125     | 1.8438     |   4.5 | 25.46
Neigh   | 1.5875     | 1.7696     | 1.9611     |  11.4 | 26.31
Comm    | 2.1643     | 2.3232     | 2.5305     |   8.7 | 34.54
Output  | 0.093793   | 0.093977   | 0.095104   |   0.1 |  1.40
Modify  | 0.5135     | 0.53997    | 0.55775    |   1.9 |  8.03
Other   |            | 0.2867     |            |       |  4.26

Nlocal:            256 ave         273 max         236 min
Histogram: 1 0 2 0 1 0 0 1 2 1
Nghost:            409 ave         429 max         392 min
Histogram: 1 2 1 0 0 1 0 2 0 1
Neighs:           1536 ave        1647 max        1408 min
Histogram: 1 0 2 1 0 0 0 2 1 1

Total # of neighbors = 12288
Ave neighs/atom = 6
Neighbor list builds = 22259
Dangerous builds = 0
Total wall time: 0:00:11
