ITEM: TIMESTEP
100000
ITEM: NUMBER OF ATOMS
400
ITEM: BOX BOUNDS pp pp pp
0.0000000000000000e+00 2.8284271247461902e+01
0.0000000000000000e+00 2.8284271247461902e+01
-7.0710678118654757e-01 7.0710678118654757e-01
ITEM: ATOMS id type xs ys zs
193 1 0.078384 0.121164 0.5
75 1 0.222576 0.0850723 0.5
122 1 0.209878 0.164122 0.5
264 1 0.0241768 0.280824 0.5
358 1 0.208648 0.34855 0.5
349 1 0.0973949 0.155034 0.5
211 1 0.234154 0.217263 0.5
144 1 0.0832521 0.220679 0.5
309 1 0.18204 0.291935 0.5
209 1 0.10807 0.449466 0.5
9 1 0.225357 0.500463 0.5
63 1 0.132528 0.396092 0.5
128 1 0.111412 0.277025 0.5
39 1 0.184868 0.200688 0.5
390 1 0.0588776 0.0786425 0.5
217 1 0.111857 0.316011 0.5
53 1 0.193004 0.234046 0.5
104 1 0.199924 0.126631 0.5
315 1 0.071742 0.322055 0.5
79 1 0.0133709 0.0667 0.5
84 1 0.136314 0.192032 0.5
195 1 0.0648399 0.169102 0.5
323 1 0.0276075 0.180331 0.5
216 1 0.0662775 0.390727 0.5
113 1 0.178615 0.053635 0.5
204 1 0.135564 0.0466062 0.5
196 1 0.132926 0.238207 0.5
171 1 0.0339951 0.345208 0.5
395 1 0.158265 0.41914 0.5
149 1 0.163775 0.378926 0.5
294 1 0.155449 0.312478 0.5
7 1 0.147986 0.34818 0.5
368 1 0.250254 0.389424 0.5
370 1 0.214156 0.393793 0.5
316 1 0.0710415 0.431024 0.5
32 1 0.187169 0.444853 0.5
269 1 0.163986 0.151838 0.5
292 1 0.216039 0.264107 0.5
345 1 0.102682 0.414598 0.5
278 1 0.0542179 0.253472 0.5
72 1 0.234172 0.127183 0.5
160 1 0.0884325 0.0470879 0.5
234 1 0.0868039 0.482247 0.5
290 1 0.207257 0.0202234 0.5
301 1 0.234796 0.31659 0.5
355 1 0.039817 0.47685 0.5
73 1 0.0569743 0.0276939 0.5
40 1 0.0140146 0.137661 0.5
74 1 0.191706 0.481284 0.5
169 1 0.0755539 0.855783 0.5
22 1 0.0365847 0.661243 0.5
279 1 0.181177 0.850682 0.5
189 1 0.17012 0.710398 0.5
133 1 0.186115 0.916288 0.5
367 1 0.149011 0.837077 0.5
372 1 0.0698849 0.511995 0.5
282 1 0.00963725 0.818938 0.5
184 1 0.0207655 0.611801 0.5
236 1 0.0996406 0.89225 0.5
5 1 0.105439 0.548545 0.5
175 1 0.238429 0.737592 0.5
81 1 0.0413339 0.839549 0.5
119 1 0.0927938 0.59289 0.5
19 1 0.165382 0.629212 0.5
165 1 0.0785775 0.70497 0.5
25 1 0.00388141 0.543465 0.5
80 1 0.041271 0.992873 0.5
239 1 0.104032 0.83553 0.5
107 1 0.137319 0.884861 0.5
85 1 0.190227 0.673004 0.5
182 1 0.176804 0.551527 0.5
106 1 0.0708493 0.914366 0.5
329 1 0.238901 0.819967 0.5
379 1 0.0953074 0.628403 0.5
381 1 0.129011 0.579876 0.5
180 1 0.109745 0.688287 0.5
273 1 0.0400855 0.696997 0.5
317 1 0.144887 0.954803 0.5
151 1 0.229475 0.645192 0.5
235 1 0.00536328 0.736747 0.5
117 1 0.0740337 0.65585 0.5
280 1 0.124622 0.74095 0.5
373 1 0.181132 0.785082 0.5
16 1 0.232911 0.866714 0.5
271 1 0.146627 0.683724 0.5
130 1 0.0426013 0.935759 0.5
24 1 0.036983 0.574164 0.5
192 1 0.109753 0.779553 0.5
185 1 0.239381 0.60279 0.5
82 1 0.1411 0.503212 0.5
140 1 0.220078 0.780585 0.5
44 1 0.0832471 0.739326 0.5
60 1 0.220395 0.566616 0.5
30 1 0.0599194 0.544328 0.5
146 1 0.166119 0.999825 0.5
66 1 0.133935 0.805277 0.5
233 1 0.202521 0.813098 0.5
307 1 0.043324 0.801704 0.5
270 1 0.37158 0.174148 0.5
246 1 0.305218 0.0672097 0.5
276 1 0.445538 0.117576 0.5
52 1 0.381498 0.424958 0.5
325 1 0.287995 0.333057 0.5
203 1 0.268431 0.0960046 0.5
159 1 0.333771 0.136673 0.5
54 1 0.327877 0.0128284 0.5
118 1 0.451164 0.0165854 0.5
139 1 0.397138 0.371692 0.5
47 1 0.412698 0.210754 0.5
226 1 0.497825 0.0891818 0.5
259 1 0.474052 0.458019 0.5
285 1 0.35138 0.452301 0.5
148 1 0.457136 0.191947 0.5
303 1 0.432293 0.481123 0.5
6 1 0.372769 0.273701 0.5
228 1 0.468427 0.389275 0.5
212 1 0.463751 0.313115 0.5
55 1 0.253457 0.273724 0.5
115 1 0.358349 0.0705674 0.5
35 1 0.408085 0.066229 0.5
56 1 0.363381 0.0146048 0.5
334 1 0.405084 0.243542 0.5
101 1 0.270075 0.0590111 0.5
258 1 0.490624 0.235155 0.5
164 1 0.298987 0.122787 0.5
70 1 0.336047 0.187279 0.5
354 1 0.363314 0.104338 0.5
41 1 0.491342 0.360772 0.5
27 1 0.396357 0.455412 0.5
268 1 0.467598 0.14857 0.5
392 1 0.294537 0.282742 0.5
167 1 0.348284 0.366699 0.5
384 1 0.315806 0.471338 0.5
202 1 0.34531 0.237771 0.5
142 1 0.286069 0.3736 0.5
361 1 0.409988 0.152675 0.5
244 1 0.327982 0.267624 0.5
91 1 0.454121 0.0770159 0.5
281 1 0.420217 0.345097 0.5
346 1 0.288848 0.21596 0.5
1 1 0.465925 0.425227 0.5
311 1 0.399681 0.0265715 0.5
331 1 0.383658 0.315358 0.5
383 1 0.271873 0.422139 0.5
335 1 0.490005 0.487087 0.5
339 1 0.422439 0.998451 0.5
288 1 0.290017 0.858129 0.5
168 1 0.288423 0.970273 0.5
36 1 0.316131 0.564932 0.5
336 1 0.355669 0.611866 0.5
267 1 0.476996 0.909292 0.5
222 1 0.466787 0.709759 0.5
33 1 0.318341 0.6197 0.5
225 1 0.421144 0.826833 0.5
34 1 0.304678 0.814938 0.5
375 1 0.455336 0.539688 0.5
357 1 0.328024 0.958406 0.5
154 1 0.484983 0.785414 0.5
353 1 0.383261 0.922349 0.5
158 1 0.422877 0.519675 0.5
87 1 0.269328 0.672771 0.5
157 1 0.347031 0.693337 0.5
287 1 0.444405 0.606093 0.5
143 1 0.373497 0.549954 0.5
68 1 0.395969 0.710745 0.5
215 1 0.444345 0.800805 0.5
112 1 0.26132 0.712242 0.5
255 1 0.450717 0.674642 0.5
289 1 0.484814 0.676582 0.5
26 1 0.255708 0.769133 0.5
188 1 0.304852 0.694431 0.5
46 1 0.364071 0.752879 0.5
272 1 0.303506 0.896254 0.5
95 1 0.407546 0.646783 0.5
230 1 0.355101 0.655188 0.5
304 1 0.258627 0.95206 0.5
286 1 0.402241 0.573861 0.5
352 1 0.306332 0.931146 0.5
174 1 0.496771 0.877989 0.5
398 1 0.485493 0.619624 0.5
97 1 0.44282 0.914183 0.5
333 1 0.384729 0.848415 0.5
179 1 0.301649 0.731981 0.5
177 1 0.402687 0.757846 0.5
123 1 0.402559 0.963556 0.5
257 1 0.389149 0.795999 0.5
399 1 0.366147 0.969088 0.5
321 1 0.295602 0.646227 0.5
263 1 0.476949 0.572553 0.5
147 1 0.397822 0.890249 0.5
299 1 0.454923 0.756615 0.5
382 1 0.341495 0.873247 0.5
366 1 0.442949 0.870768 0.5
337 1 0.436424 0.949415 0.5
83 1 0.333076 0.763901 0.5
13 1 0.261914 0.575867 0.5
94 1 0.479126 0.835994 0.5
78 1 0.331369 0.507178 0.5
170 1 0.275473 0.519618 0.5
275 1 0.494985 0.727834 0.5
332 1 0.467288 0.98137 0.5
152 1 0.37748 0.513916 0.5
18 1 0.538578 0.346256 0.5
50 1 0.730184 0.40562 0.5
356 1 0.551448 0.107604 0.5
201 1 0.699754 0.358464 0.5
121 1 0.681184 0.49841 0.5
187 1 0.612032 0.313949 0.5
320 1 0.535754 0.0530963 0.5
265 1 0.706244 0.183461 0.5
207 1 0.675166 0.15585 0.5
227 1 0.569977 0.320949 0.5
58 1 0.587192 0.118666 0.5
88 1 0.650597 0.472089 0.5
61 1 0.527468 0.155798 0.5
253 1 0.738554 0.109852 0.5
10 1 0.560487 0.222053 0.5
310 1 0.708334 0.0182857 0.5
365 1 0.542642 0.191177 0.5
183 1 0.559261 0.272398 0.5
105 1 0.666893 0.192064 0.5
23 1 0.672882 0.0810768 0.5
240 1 0.637666 0.140213 0.5
386 1 0.645344 0.326107 0.5
194 1 0.605712 0.0589241 0.5
92 1 0.650918 0.372572 0.5
15 1 0.68396 0.412871 0.5
363 1 0.745959 0.289473 0.5
300 1 0.680007 0.11601 0.5
162 1 0.596868 0.274322 0.5
120 1 0.710644 0.231803 0.5
324 1 0.626754 0.178029 0.5
137 1 0.588875 0.195883 0.5
205 1 0.751456 0.454743 0.5
11 1 0.701442 0.277944 0.5
232 1 0.597567 0.475562 0.5
108 1 0.748724 0.333462 0.5
371 1 0.573618 0.443938 0.5
131 1 0.705868 0.452869 0.5
343 1 0.60292 0.406425 0.5
197 1 0.500601 0.405742 0.5
224 1 0.586386 0.360526 0.5
322 1 0.5068 0.128054 0.5
377 1 0.569239 0.150415 0.5
86 1 0.636319 0.413803 0.5
231 1 0.619695 0.44175 0.5
245 1 0.647489 0.0245089 0.5
394 1 0.645212 0.273687 0.5
238 1 0.536121 0.467268 0.5
110 1 0.511039 0.306342 0.5
248 1 0.522727 0.24881 0.5
51 1 0.530199 0.424128 0.5
4 1 0.724367 0.0663668 0.5
241 1 0.586348 0.73271 0.5
389 1 0.659534 0.736082 0.5
29 1 0.609797 0.50803 0.5
114 1 0.750328 0.611629 0.5
69 1 0.727422 0.786021 0.5
302 1 0.678364 0.912239 0.5
186 1 0.678851 0.573479 0.5
199 1 0.712369 0.918246 0.5
2 1 0.710757 0.562807 0.5
31 1 0.597506 0.6282 0.5
391 1 0.639675 0.962722 0.5
296 1 0.57642 0.858367 0.5
341 1 0.615368 0.688102 0.5
291 1 0.576165 0.697943 0.5
136 1 0.511704 0.645905 0.5
360 1 0.543695 0.722886 0.5
314 1 0.696288 0.863758 0.5
237 1 0.586024 0.811488 0.5
243 1 0.618721 0.575565 0.5
14 1 0.739577 0.81973 0.5
344 1 0.661552 0.604734 0.5
21 1 0.645992 0.900453 0.5
93 1 0.696371 0.73318 0.5
388 1 0.543134 0.833406 0.5
150 1 0.700354 0.678281 0.5
327 1 0.624751 0.778072 0.5
295 1 0.56 0.541297 0.5
362 1 0.626163 0.744363 0.5
261 1 0.504246 0.525739 0.5
326 1 0.680416 0.952768 0.5
247 1 0.618491 0.867029 0.5
219 1 0.664779 0.843528 0.5
65 1 0.582564 0.659797 0.5
313 1 0.569172 0.891608 0.5
221 1 0.660556 0.800485 0.5
141 1 0.517157 0.561516 0.5
400 1 0.524453 0.949797 0.5
220 1 0.524757 0.6865 0.5
191 1 0.525849 0.914589 0.5
312 1 0.714901 0.607434 0.5
297 1 0.715641 0.95449 0.5
293 1 0.587404 0.777971 0.5
350 1 0.560589 0.592306 0.5
125 1 0.693667 0.773234 0.5
76 1 0.602387 0.899125 0.5
181 1 0.748061 0.732918 0.5
129 1 0.712246 0.522483 0.5
305 1 0.741623 0.647473 0.5
298 1 0.514245 0.598703 0.5
127 1 0.576037 0.503662 0.5
100 1 0.728212 0.87159 0.5
161 1 0.553974 0.99404 0.5
176 1 0.67499 0.998221 0.5
96 1 0.893116 0.348882 0.5
393 1 0.905941 0.156511 0.5
178 1 0.798262 0.0843415 0.5
214 1 0.998935 0.491213 0.5
266 1 0.83318 0.181997 0.5
173 1 0.818211 0.150077 0.5
38 1 0.924219 0.0690244 0.5
89 1 0.858829 0.121916 0.5
254 1 0.984798 0.158027 0.5
138 1 0.946497 0.22136 0.5
369 1 0.868052 0.0505383 0.5
306 1 0.915108 0.402158 0.5
156 1 0.752188 0.186314 0.5
348 1 0.957602 0.0262271 0.5
109 1 0.83868 0.274511 0.5
145 1 0.981354 0.290394 0.5
103 1 0.916055 0.249766 0.5
328 1 0.908157 0.282911 0.5
330 1 0.936273 0.127849 0.5
374 1 0.807443 0.346969 0.5
163 1 0.776662 0.401999 0.5
3 1 0.77097 0.224165 0.5
135 1 0.943731 0.481266 0.5
342 1 0.831495 0.215462 0.5
251 1 0.800776 0.299086 0.5
223 1 0.835641 0.323158 0.5
206 1 0.793818 0.0271675 0.5
98 1 0.901214 0.0169226 0.5
283 1 0.796971 0.246939 0.5
218 1 0.879772 0.315452 0.5
351 1 0.958917 0.423967 0.5
12 1 0.866369 0.201914 0.5
385 1 0.860601 0.367024 0.5
318 1 0.945742 0.289292 0.5
172 1 0.898351 0.112932 0.5
111 1 0.926971 0.365226 0.5
77 1 0.98862 0.458101 0.5
252 1 0.819135 0.383533 0.5
45 1 0.92361 0.437549 0.5
59 1 0.79011 0.469167 0.5
43 1 0.85487 0.409736 0.5
166 1 0.82861 0.477471 0.5
249 1 0.803428 0.43126 0.5
210 1 0.990453 0.401078 0.5
277 1 0.773413 0.109909 0.5
256 1 0.900567 0.475749 0.5
380 1 0.983911 0.192321 0.5
57 1 0.972199 0.105531 0.5
67 1 0.764105 0.495287 0.5
359 1 0.863106 0.971389 0.5
364 1 0.922496 0.607517 0.5
155 1 0.970846 0.529958 0.5
102 1 0.930815 0.871651 0.5
378 1 0.844741 0.751514 0.5
338 1 0.952552 0.559419 0.5
213 1 1.00031 0.878321 0.5
48 1 0.783618 0.783294 0.5
200 1 0.957541 0.767117 0.5
284 1 0.756677 0.694447 0.5
198 1 0.906536 0.547953 0.5
99 1 0.909714 0.66531 0.5
396 1 0.804457 0.568083 0.5
208 1 0.778675 0.967874 0.5
260 1 0.855094 0.531572 0.5
242 1 0.896081 0.633693 0.5
229 1 0.789541 0.717626 0.5
250 1 0.953127 0.653236 0.5
28 1 0.858656 0.577647 0.5
319 1 0.944624 0.932574 0.5
64 1 0.932446 0.802667 0.5
262 1 0.955234 0.726404 0.5
308 1 0.918159 0.72733 0.5
153 1 0.82273 0.674875 0.5
132 1 0.853252 0.622651 0.5
190 1 0.807956 0.837296 0.5
340 1 0.971609 0.594519 0.5
116 1 0.877784 0.765323 0.5
376 1 0.969252 0.894579 0.5
387 1 0.867971 0.684852 0.5
8 1 0.981795 0.689546 0.5
397 1 0.780263 0.595635 0.5
17 1 0.908843 0.897055 0.5
62 1 0.760587 0.933968 0.5
37 1 0.790078 0.911897 0.5
71 1 0.771292 0.82939 0.5
274 1 0.836657 0.923333 0.5
42 1 0.849055 0.873331 0.5
124 1 0.961352 0.849732 0.5
347 1 0.821187 0.999998 0.5
20 1 0.756585 0.558137 0.5
49 1 0.958942 0.964774 0.5
126 1 0.924235 0.765864 0.5
90 1 0.874146 0.925843 0.5
134 1 0.998804 0.783056 0.5
