LAMMPS (15 Sep 2022)
OMP_NUM_THREADS environment is not set. Defaulting to 1 thread. (src/comm.cpp:98)
  using 1 OpenMP thread(s) per MPI task
# 2d WCA system, random initial configuration

#variable density equal 0.5
variable initial_temperature equal 3.0
variable final_temperature equal 0.1
variable dt equal 0.01
variable tau equal 100*${dt}
variable tau equal 100*0.01
variable thermo_time equal 50000*${dt}
variable thermo_time equal 50000*0.01
variable equil_steps equal 50000
variable run_steps equal 100000

units           lj
atom_style      atomic
dimension       2

lattice         sq ${density}
lattice         sq 0.5
Lattice spacing in x,y,z = 1.4142136 1.4142136 1.4142136
region          box block 0 20 0 20 -0.5 0.5
# number of atom types
create_box      1 box
Created orthogonal box = (0 0 -0.70710678) to (28.284271 28.284271 0.70710678)
  4 by 2 by 1 MPI processor grid
create_atoms    1 box
Created 400 atoms
  using lattice units in orthogonal box = (0 0 -0.70710678) to (28.284271 28.284271 0.70710678)
  create_atoms CPU = 0.000 seconds
mass 1 1.0

velocity all create ${initial_temperature} 12345
velocity all create 3 12345

pair_style      lj/cut 1.0
#type_1 type_2 epsilon sigma cutoff
pair_coeff      1 1 10.0 0.89089871814 1.0
pair_modify shift yes

timestep ${dt}
timestep 0.01
thermo ${thermo_time}
thermo 500

fix 1 all nvt temp ${initial_temperature} ${initial_temperature} ${tau}
fix 1 all nvt temp 3 ${initial_temperature} ${tau}
fix 1 all nvt temp 3 3 ${tau}
fix 1 all nvt temp 3 3 1
run ${equil_steps}
run 50000
Generated 0 of 0 mixed pair_coeff terms from geometric mixing rule
Neighbor list info ...
  update: every = 1 steps, delay = 0 steps, check = yes
  max neighbors/atom: 2000, page size: 100000
  master list distance cutoff = 1.3
  ghost atom cutoff = 1.3
  binsize = 0.65, bins = 44 44 3
  1 neighbor lists, perpetual/occasional/extra = 1 0 0
  (1) pair lj/cut, perpetual
      attributes: half, newton on
      pair build: half/bin/atomonly/newton
      stencil: half/bin/2d
      bin: standard
Per MPI rank memory allocation (min/avg/max) = 3.048 | 3.049 | 3.049 Mbytes
   Step          Temp          E_pair         E_mol          TotEng         Press     
         0   3              0              0              2.9925         1.49625      
       500   2.9896         0.18045469     0              3.1625807      3.2367391    
      1000   2.8749559      0.20734266     0              3.0751112      3.5085619    
      1500   2.9231239      0.24774582     0              3.1635619      3.7725781    
      2000   3.0186918      0.19622993     0              3.207375       3.4598898    
      2500   3.1731354      0.16306234     0              3.3282649      3.2872182    
      3000   3.250752       0.16292932     0              3.4055545      3.4003338    
      3500   3.191899       0.29374412     0              3.4776634      4.3064716    
      4000   3.3000111      0.20771709     0              3.4994782      3.5880207    
      4500   3.0655472      0.19901247     0              3.2568958      3.4842268    
      5000   3.0180234      0.24819786     0              3.2586762      3.8088308    
      5500   3.0606407      0.2035182      0              3.2565073      3.4548964    
      6000   3.019621       0.17607049     0              3.1881425      3.3460474    
      6500   2.8020089      0.28579032     0              3.0807942      4.0357209    
      7000   2.7931427      0.17396915     0              2.960129       3.0924329    
      7500   2.9316621      0.17789112     0              3.1022241      3.3332783    
      8000   3.0651023      0.20164225     0              3.2590818      3.5731317    
      8500   3.04576        0.21705708     0              3.2552027      3.6678943    
      9000   3.2199474      0.21508056     0              3.4269781      3.6961392    
      9500   3.0460429      0.21498263     0              3.2534104      3.673743     
     10000   3.1348748      0.20524118     0              3.3322788      3.5277129    
     10500   3.0784995      0.26927053     0              3.3400738      3.9780239    
     11000   3.2500498      0.25262486     0              3.4945495      3.8820524    
     11500   2.9684033      0.26775689     0              3.2287392      3.9416267    
     12000   2.9606887      0.27951005     0              3.232797       4.1302934    
     12500   3.005284       0.2203275      0              3.2180983      3.5672218    
     13000   2.9687828      0.24971115     0              3.211072       3.7291275    
     13500   2.9403637      0.26005326     0              3.1930661      3.7481376    
     14000   2.927786       0.27131751     0              3.191784       3.9250442    
     14500   2.8553705      0.25160959     0              3.0998416      3.7997845    
     15000   2.7868582      0.17047547     0              2.9503665      3.0995801    
     15500   2.9826548      0.20463351     0              3.1798317      3.4769326    
     16000   2.8366673      0.20034659     0              3.0299222      3.5352231    
     16500   2.8700047      0.21578823     0              3.0786179      3.4461834    
     17000   2.7323804      0.18720379     0              2.9127532      3.2046841    
     17500   3.1097723      0.16202596     0              3.2640238      3.2557878    
     18000   3.0632699      0.28503168     0              3.3406434      4.2451029    
     18500   3.1480986      0.14152702     0              3.2817554      3.0673964    
     19000   3.2224341      0.17671572     0              3.3910937      3.465952     
     19500   3.122098       0.29549833     0              3.4097911      4.4054708    
     20000   3.1660823      0.27888577     0              3.4370529      4.1311887    
     20500   2.8786         0.164556       0              3.0359595      3.1869201    
     21000   2.9660582      0.19004256     0              3.1486856      3.2447544    
     21500   2.7671306      0.19813055     0              2.9583433      3.4332992    
     22000   2.9412563      0.18819467     0              3.1220978      3.4100583    
     22500   2.8974038      0.23545963     0              3.1256199      3.5605482    
     23000   3.0529363      0.25363518     0              3.2989392      3.8970578    
     23500   3.2606504      0.25160008     0              3.5040989      4.1084289    
     24000   3.2929813      0.20426987     0              3.4890187      3.8184058    
     24500   2.8427698      0.22276157     0              3.0584245      3.5600518    
     25000   3.0125967      0.20766137     0              3.2127266      3.508665     
     25500   2.9438465      0.22898923     0              3.1654762      3.5447803    
     26000   2.8761847      0.22341324     0              3.0924075      3.5603169    
     26500   2.8619869      0.21963163     0              3.0744635      3.5170614    
     27000   2.7774342      0.14556954     0              2.9160601      2.9625435    
     27500   3.0502576      0.12651041     0              3.1691424      2.961171     
     28000   3.0919887      0.18780602     0              3.2720647      3.3844328    
     28500   3.2607225      0.17917357     0              3.4317442      3.5001062    
     29000   3.1074177      0.25828416     0              3.3579334      4.0054638    
     29500   3.1695837      0.22358872     0              3.3852485      3.7292981    
     30000   3.1352739      0.1974551      0              3.3248908      3.4041922    
     30500   3.2430074      0.19430725     0              3.4292071      3.5029841    
     31000   3.2311334      0.27313546     0              3.4961911      4.1118987    
     31500   3.1080182      0.22483258     0              3.3250807      3.8437521    
     32000   2.8898879      0.33973393     0              3.2223971      4.3130461    
     32500   2.9366371      0.16077666     0              3.0900722      3.2309702    
     33000   2.7567098      0.26323771     0              3.0130558      3.8425951    
     33500   2.8873712      0.13222331     0              3.0123761      2.9748893    
     34000   2.7148501      0.24993563     0              2.9579986      3.5537099    
     34500   2.9354867      0.20301321     0              3.1311612      3.507124     
     35000   2.8660184      0.17139818     0              3.0302515      3.2055869    
     35500   2.8129562      0.26996957     0              3.0758933      3.767493     
     36000   2.7342107      0.26035749     0              2.9877326      3.7070957    
     36500   3.2211126      0.16596494     0              3.3790247      3.3707352    
     37000   3.094454       0.26180018     0              3.3485181      3.9282679    
     37500   3.1915352      0.19481507     0              3.3783715      3.570055     
     38000   3.1077016      0.22762679     0              3.3275591      3.7821675    
     38500   3.1864951      0.22013885     0              3.3986677      3.5645768    
     39000   3.4125172      0.16607591     0              3.5700619      3.4384755    
     39500   3.0223442      0.13558223     0              3.1503705      2.9287879    
     40000   2.9849774      0.16886399     0              3.1463789      3.275651     
     40500   3.0062945      0.1603529      0              3.1591316      3.1653115    
     41000   2.9390192      0.15979807     0              3.0914697      3.0274561    
     41500   2.8698854      0.17214972     0              3.0348604      3.0709542    
     42000   2.8524478      0.20094006     0              3.0462567      3.546752     
     42500   2.8279841      0.14691781     0              2.9678319      2.9164566    
     43000   2.9424349      0.23376455     0              3.1688434      3.6952346    
     43500   2.9828606      0.22447675     0              3.1998802      3.5301671    
     44000   3.1624842      0.16250293     0              3.3170809      3.3060761    
     44500   3.0801145      0.21898583     0              3.2914001      3.6622379    
     45000   3.2122917      0.27748689     0              3.4817478      4.1365431    
     45500   2.9784825      0.25554289     0              3.2265792      4.0485053    
     46000   2.9901889      0.18470313     0              3.1674165      3.3906133    
     46500   2.8717504      0.22620976     0              3.0907808      3.5686732    
     47000   2.8344772      0.19913673     0              3.0265278      3.2265827    
     47500   2.5247864      0.22893644     0              2.7474109      3.3675024    
     48000   2.8563839      0.17442838     0              3.0236714      3.304889     
     48500   2.9468311      0.18124021     0              3.1207042      3.2339822    
     49000   2.667165       0.19820379     0              2.8587009      3.3939605    
     49500   2.9798787      0.16018716     0              3.1326162      3.1651374    
     50000   3.023937       0.23866819     0              3.2550453      3.6333191    
Loop time of 0.869048 on 8 procs for 50000 steps with 400 atoms

Performance: 49709591.982 tau/day, 57534.250 timesteps/s, 23.014 Matom-step/s
99.3% CPU use with 8 MPI tasks x 1 OpenMP threads

MPI task timing breakdown:
Section |  min time  |  avg time  |  max time  |%varavg| %total
---------------------------------------------------------------
Pair    | 0.033293   | 0.033835   | 0.034632   |   0.2 |  3.89
Neigh   | 0.080292   | 0.0816     | 0.082454   |   0.2 |  9.39
Comm    | 0.47138    | 0.48136    | 0.49334    |   1.2 | 55.39
Output  | 0.0013003  | 0.0018594  | 0.0056846  |   3.4 |  0.21
Modify  | 0.13358    | 0.14997    | 0.16393    |   3.2 | 17.26
Other   |            | 0.1204     |            |       | 13.86

Nlocal:             50 ave          55 max          47 min
Histogram: 2 1 1 1 0 1 0 1 0 1
Nghost:           29.5 ave          33 max          25 min
Histogram: 1 0 1 1 0 1 1 1 0 2
Neighs:         47.125 ave          57 max          34 min
Histogram: 1 0 0 2 1 0 1 0 1 2

Total # of neighbors = 377
Ave neighs/atom = 0.9425
Neighbor list builds = 16919
Dangerous builds = 0

unfix 1
dump           1 all atom ${run_steps} 2dWCA_T${final_temperature}_d${density}_N${run_steps}.lammpstrj
dump           1 all atom 100000 2dWCA_T${final_temperature}_d${density}_N${run_steps}.lammpstrj
dump           1 all atom 100000 2dWCA_T0.1_d${density}_N${run_steps}.lammpstrj
dump           1 all atom 100000 2dWCA_T0.1_d0.5_N${run_steps}.lammpstrj
dump           1 all atom 100000 2dWCA_T0.1_d0.5_N100000.lammpstrj
dump           2 all dcd ${thermo_time} 2dWCA_T${final_temperature}_d${density}_N${run_steps}.dcd
dump           2 all dcd 500 2dWCA_T${final_temperature}_d${density}_N${run_steps}.dcd
dump           2 all dcd 500 2dWCA_T0.1_d${density}_N${run_steps}.dcd
dump           2 all dcd 500 2dWCA_T0.1_d0.5_N${run_steps}.dcd
dump           2 all dcd 500 2dWCA_T0.1_d0.5_N100000.dcd
fix 1 all nvt temp ${initial_temperature} ${final_temperature} ${tau}
fix 1 all nvt temp 3 ${final_temperature} ${tau}
fix 1 all nvt temp 3 0.1 ${tau}
fix 1 all nvt temp 3 0.1 1

run ${run_steps}
run 100000
Generated 0 of 0 mixed pair_coeff terms from geometric mixing rule
Per MPI rank memory allocation (min/avg/max) = 3.072 | 3.072 | 3.073 Mbytes
   Step          Temp          E_pair         E_mol          TotEng         Press     
     50000   3.023937       0.23866819     0              3.2550453      3.6333191    
     50500   3.0696419      0.27077429     0              3.3327421      4.0852362    
     51000   3.1144405      0.19833879     0              3.3049932      3.5386128    
     51500   2.9903193      0.24919372     0              3.2320372      3.8166581    
     52000   2.6956031      0.14818557     0              2.8370496      3.0291707    
     52500   2.6991607      0.1330624      0              2.8254752      2.7259166    
     53000   2.8105778      0.18495369     0              2.988505       3.4322983    
     53500   2.8226134      0.18026759     0              2.9958244      3.2537712    
     54000   2.7833584      0.23777705     0              3.014177       3.6630582    
     54500   2.8717949      0.2508332      0              3.1154486      3.7076484    
     55000   2.9903467      0.15372836     0              3.1365992      3.1699365    
     55500   2.89785        0.15990606     0              3.0505114      3.1808926    
     56000   3.0042292      0.18871405     0              3.1854326      3.4390092    
     56500   2.9580823      0.25258364     0              3.2032707      3.9204454    
     57000   2.8641932      0.26235846     0              3.1193912      3.7095012    
     57500   2.7911942      0.22426205     0              3.0084783      3.5576993    
     58000   2.741195       0.14797679     0              2.8823188      2.8603174    
     58500   2.5418897      0.1645001      0              2.700035       2.9732855    
     59000   2.5728334      0.16921723     0              2.7356186      3.08529      
     59500   2.57014        0.23071569     0              2.7944303      3.417749     
     60000   2.6095604      0.17839718     0              2.7814337      3.1374952    
     60500   2.5470991      0.18159193     0              2.7223233      3.1228791    
     61000   2.4536911      0.10094753     0              2.5485044      2.3796112    
     61500   2.534366       0.21715913     0              2.7451892      3.2662225    
     62000   2.6696846      0.18592925     0              2.8489396      3.3569707    
     62500   2.7179673      0.20509227     0              2.9162647      3.2967992    
     63000   2.6125886      0.21639169     0              2.8224488      3.4458147    
     63500   2.8379498      0.14125191     0              2.9721069      2.8581283    
     64000   2.6301105      0.16219762     0              2.7857328      2.9992487    
     64500   2.7206504      0.24768257     0              2.9615313      3.6544233    
     65000   2.6603346      0.23752789     0              2.8912117      3.583479     
     65500   2.5461748      0.19565546     0              2.7354649      3.2018       
     66000   2.4796874      0.12426741     0              2.5977556      2.6554062    
     66500   2.4792261      0.18549272     0              2.6585207      3.2294903    
     67000   2.3298321      0.14247051     0              2.4664781      2.6765685    
     67500   2.4114685      0.1767949      0              2.5822347      2.9735227    
     68000   2.5008748      0.11722547     0              2.6118481      2.5372095    
     68500   2.470847       0.20356438     0              2.6682342      3.3277216    
     69000   2.4824516      0.14788881     0              2.6241343      2.735962     
     69500   2.4917149      0.15364479     0              2.6391304      2.865535     
     70000   2.4627229      0.17351564     0              2.6300817      3.0087437    
     70500   2.5026346      0.14977473     0              2.6461527      2.6614433    
     71000   2.5950372      0.17102764     0              2.7595773      3.1021481    
     71500   2.6422799      0.20233916     0              2.8380133      3.3566417    
     72000   2.3695073      0.20054699     0              2.5641305      3.2264527    
     72500   2.3394813      0.14617651     0              2.4798091      2.7992294    
     73000   2.2509183      0.20035639     0              2.4456474      3.0605746    
     73500   2.272265       0.15075105     0              2.4173354      2.656557     
     74000   2.1975839      0.1326548      0              2.3247448      2.5599495    
     74500   2.228462       0.19539302     0              2.4182839      3.0403655    
     75000   2.1554812      0.12917789     0              2.2792703      2.4148045    
     75500   2.2505494      0.14219446     0              2.3871175      2.6154495    
     76000   2.275349       0.13191848     0              2.4015791      2.5613202    
     76500   2.2979365      0.14321405     0              2.4354057      2.782785     
     77000   2.4563147      0.15438755     0              2.6045614      2.9227973    
     77500   2.3429354      0.12965337     0              2.4667314      2.5371224    
     78000   2.2059359      0.13432368     0              2.3347447      2.5900783    
     78500   2.1544361      0.12588426     0              2.2749343      2.5096625    
     79000   1.9939025      0.14628512     0              2.1352028      2.5016029    
     79500   1.9211551      0.11100986     0              2.0273621      2.3843575    
     80000   1.9640619      0.17986139     0              2.1390131      2.9718137    
     80500   2.0541805      0.15472306     0              2.2037681      2.6307136    
     81000   2.0944325      0.11179236     0              2.2009888      2.2794445    
     81500   2.1131636      0.156152       0              2.2640327      2.7385487    
     82000   2.1205968      0.17918557     0              2.2944809      2.8004981    
     82500   2.1606935      0.098785664    0              2.2540774      2.2767421    
     83000   2.0230345      0.1762536      0              2.1942305      2.7994299    
     83500   1.9258105      0.11863445     0              2.0396304      2.2710119    
     84000   1.8964806      0.069568387    0              1.9613078      1.819587     
     84500   1.8881877      0.12349476     0              2.006962       2.3581236    
     85000   1.914912       0.13786873     0              2.0479934      2.4365793    
     85500   1.8285566      0.10269369     0              1.9266789      2.0900229    
     86000   1.9764731      0.14422048     0              2.1157524      2.4626184    
     86500   2.0120972      0.13275013     0              2.1398171      2.4132473    
     87000   2.0548879      0.089335797    0              2.1390864      2.0792086    
     87500   1.9369865      0.16428339     0              2.0964274      2.7048876    
     88000   1.7926915      0.1121047      0              1.9003145      2.2057689    
     88500   1.6708626      0.13451632     0              1.8012017      2.4193345    
     89000   1.7602222      0.12959369     0              1.8854153      2.3031361    
     89500   1.8214564      0.13593788     0              1.9528406      2.4690965    
     90000   1.9209463      0.0983579      0              2.0145019      2.2265253    
     90500   1.9717498      0.14551706     0              2.1123375      2.4660914    
     91000   1.8655723      0.10476922     0              1.9656775      2.2274262    
     91500   1.8064187      0.10661675     0              1.9085194      2.1378861    
     92000   1.7997375      0.080624502    0              1.8758626      1.8277067    
     92500   1.7405006      0.1148112      0              1.8509605      2.1680225    
     93000   1.7613545      0.069715011    0              1.8266661      1.8524783    
     93500   1.5899534      0.14956372     0              1.7355422      2.4623657    
     94000   1.741614       0.073122758    0              1.8103827      1.8610989    
     94500   1.7067786      0.094344372    0              1.796856       1.9603107    
     95000   1.6476224      0.11798817     0              1.7614915      2.1458829    
     95500   1.659183       0.077960563    0              1.7329956      1.8352188    
     96000   1.5420104      0.14389453     0              1.6820499      2.3142826    
     96500   1.7178811      0.054135606    0              1.767722       1.5156176    
     97000   1.6881963      0.091187124    0              1.7751629      1.9910828    
     97500   1.712375       0.093925504    0              1.8020196      1.9460618    
     98000   1.6804953      0.16203052     0              1.8383246      2.4526135    
     98500   1.7097433      0.10529347     0              1.8107624      2.091277     
     99000   1.5819903      0.11211413     0              1.6901495      2.0814024    
     99500   1.5228364      0.096909753    0              1.615939       1.8831802    
    100000   1.4063765      0.10317826     0              1.5060388      2.0258406    
    100500   1.44821        0.097013039    0              1.5416025      1.8685411    
    101000   1.5735186      0.1054627      0              1.6750475      1.9877997    
    101500   1.5608277      0.12803353     0              1.6849591      2.1419223    
    102000   1.5350452      0.057409944    0              1.5886175      1.5925717    
    102500   1.3925972      0.089249757    0              1.4783655      1.8763198    
    103000   1.3229537      0.07211257     0              1.3917589      1.6513321    
    103500   1.3202677      0.10423698     0              1.421204       1.7881173    
    104000   1.398811       0.055477472    0              1.4507915      1.4281212    
    104500   1.3775572      0.064096272    0              1.4382095      1.5326008    
    105000   1.3587693      0.069925779    0              1.4252982      1.6071255    
    105500   1.319868       0.069075977    0              1.3856443      1.5898649    
    106000   1.2961999      0.10894158     0              1.401901       1.933375     
    106500   1.2721717      0.07576846     0              1.3447598      1.5543927    
    107000   1.3243721      0.06396318     0              1.3850244      1.546226     
    107500   1.2806535      0.055753021    0              1.3332049      1.4301097    
    108000   1.4057622      0.060788971    0              1.4630368      1.5026008    
    108500   1.3497329      0.10237285     0              1.4487314      1.9244635    
    109000   1.3701253      0.075384229    0              1.4420842      1.6730328    
    109500   1.2209003      0.12174347     0              1.3395915      2.1117995    
    110000   1.2578544      0.051609539    0              1.3063193      1.370189     
    110500   1.1684332      0.041239319    0              1.2067514      1.2492636    
    111000   1.1569411      0.073809661    0              1.2278584      1.5373893    
    111500   1.1538172      0.081593519    0              1.2325262      1.6167162    
    112000   1.1789595      0.068298904    0              1.244311       1.4140874    
    112500   1.1806544      0.075478194    0              1.253181       1.5013981    
    113000   1.1909984      0.064961865    0              1.2529828      1.5249815    
    113500   1.1982054      0.058598461    0              1.2538084      1.4485567    
    114000   1.1546857      0.074323282    0              1.2261223      1.5825633    
    114500   1.195592       0.07864208     0              1.2712451      1.6253447    
    115000   1.1262739      0.052940711    0              1.1763989      1.3194609    
    115500   1.1006277      0.057683774    0              1.1555599      1.2661752    
    116000   1.0608397      0.053891894    0              1.1120795      1.233731     
    116500   1.028736       0.044488323    0              1.0706525      1.2575023    
    117000   1.014613       0.036673461    0              1.04875        1.0700124    
    117500   0.93704932     0.047309518    0              0.98201621     1.1415143    
    118000   1.0208072      0.092126992    0              1.1103822      1.6107744    
    118500   1.0584458      0.042037693    0              1.0978374      1.2211732    
    119000   1.0532716      0.061220704    0              1.1118591      1.3428661    
    119500   0.98059758     0.052844643    0              1.0309907      1.3367404    
    120000   0.9401588      0.04924916     0              0.98705757     1.2405358    
    120500   0.87633735     0.029664886    0              0.9038114      0.94868352   
    121000   0.89159693     0.047017514    0              0.93638545     1.1570536    
    121500   0.89237825     0.048725699    0              0.938873       1.0954346    
    122000   0.90995869     0.042638232    0              0.95032203     1.1278863    
    122500   0.89332266     0.051010337    0              0.94209969     1.232878     
    123000   0.89363439     0.061787074    0              0.95318738     1.1781632    
    123500   0.95350082     0.048732929    0              0.99984999     1.2636644    
    124000   0.89611535     0.057749748    0              0.95162481     1.266165     
    124500   0.87179977     0.027793853    0              0.89741413     0.88679424   
    125000   0.80312642     0.030531967    0              0.83165057     0.89248062   
    125500   0.75462813     0.052327254    0              0.80506881     1.1219135    
    126000   0.72753463     0.030445704    0              0.7561615      0.83133057   
    126500   0.77458075     0.031714278    0              0.80435858     0.94563066   
    127000   0.78405996     0.029819994    0              0.8119198      0.88565551   
    127500   0.80240348     0.050233609    0              0.85063108     1.1071699    
    128000   0.73635952     0.048238834    0              0.78275745     1.1511924    
    128500   0.73482831     0.035459584    0              0.76845083     0.93213438   
    129000   0.67294176     0.025728426    0              0.69698783     0.78899492   
    129500   0.67340127     0.038083069    0              0.70980084     0.91655917   
    130000   0.66941156     0.020788669    0              0.6885267      0.77643086   
    130500   0.63704884     0.027934223    0              0.66339044     0.74952888   
    131000   0.64496542     0.014197359    0              0.65755036     0.61396791   
    131500   0.60428818     0.028020096    0              0.63079755     0.79941462   
    132000   0.65386715     0.024304757    0              0.67653724     0.78120456   
    132500   0.63529148     0.024024584    0              0.65772783     0.72260295   
    133000   0.6213967      0.025092038    0              0.64493525     0.71260923   
    133500   0.58924203     0.039477238    0              0.62724616     0.9304236    
    134000   0.59963896     0.027883502    0              0.62602337     0.76235433   
    134500   0.54405375     0.029087705    0              0.57178132     0.82318007   
    135000   0.53926459     0.01941854     0              0.55733497     0.65814659   
    135500   0.51335255     0.029285276    0              0.54135445     0.74322226   
    136000   0.49048713     0.027383664    0              0.51664458     0.67942771   
    136500   0.47741073     0.014945058    0              0.49116226     0.54423001   
    137000   0.45826381     0.011348979    0              0.46846713     0.48412201   
    137500   0.45390018     0.024300747    0              0.47706617     0.68125453   
    138000   0.45667251     0.020745276    0              0.47627611     0.62729995   
    138500   0.43013015     0.014030327    0              0.44308515     0.52993464   
    139000   0.39303451     0.011312487    0              0.40336442     0.47746618   
    139500   0.39976484     0.012085664    0              0.4108511      0.48140871   
    140000   0.3858687      0.010689267    0              0.39559329     0.45310242   
    140500   0.38450908     0.019003554    0              0.40255136     0.54872928   
    141000   0.3647038      0.011722678    0              0.37551472     0.45711345   
    141500   0.34911686     0.015071946    0              0.36331601     0.50484476   
    142000   0.30796938     0.0081726687   0              0.31537213     0.3574114    
    142500   0.30337454     0.020238458    0              0.32285456     0.52335868   
    143000   0.29113922     0.016567995    0              0.30697937     0.48384433   
    143500   0.31114823     0.012979278    0              0.32334964     0.4578483    
    144000   0.28502047     0.010772239    0              0.29508015     0.40453781   
    144500   0.27263323     0.010723556    0              0.2826752      0.39483867   
    145000   0.23066418     0.01010976     0              0.24019728     0.34815024   
    145500   0.22462863     0.011245782    0              0.23531284     0.35927295   
    146000   0.20571347     0.0056231102   0              0.2108223      0.26922776   
    146500   0.19738445     0.0072149769   0              0.20410597     0.29394101   
    147000   0.19798735     0.0022716025   0              0.19976398     0.17783358   
    147500   0.18080277     0.0050417905   0              0.18539255     0.25513262   
    148000   0.14191396     0.0042952529   0              0.14585443     0.20729787   
    148500   0.14301592     0.0014917382   0              0.14415012     0.13833625   
    149000   0.11080663     0.0034574984   0              0.11398711     0.15426486   
    149500   0.11079423     0.0022852513   0              0.11280249     0.13085808   
    150000   0.099062346    0.001558595    0              0.10037328     0.1219634    
Loop time of 1.62438 on 8 procs for 100000 steps with 400 atoms

Performance: 53189388.848 tau/day, 61561.793 timesteps/s, 24.625 Matom-step/s
99.4% CPU use with 8 MPI tasks x 1 OpenMP threads

MPI task timing breakdown:
Section |  min time  |  avg time  |  max time  |%varavg| %total
---------------------------------------------------------------
Pair    | 0.059137   | 0.059664   | 0.061174   |   0.3 |  3.67
Neigh   | 0.11764    | 0.11886    | 0.12033    |   0.2 |  7.32
Comm    | 0.88172    | 0.90144    | 0.92225    |   1.6 | 55.49
Output  | 0.01851    | 0.018638   | 0.01938    |   0.2 |  1.15
Modify  | 0.26699    | 0.29815    | 0.32777    |   4.6 | 18.35
Other   |            | 0.2276     |            |       | 14.01

Nlocal:             50 ave          54 max          46 min
Histogram: 1 0 1 1 0 2 1 1 0 1
Nghost:         29.625 ave          32 max          26 min
Histogram: 1 0 0 1 0 2 1 0 1 2
Neighs:         48.625 ave          58 max          40 min
Histogram: 1 1 1 1 0 1 1 0 1 1

Total # of neighbors = 389
Ave neighs/atom = 0.9725
Neighbor list builds = 24810
Dangerous builds = 0
Total wall time: 0:00:02
