#     Step Nr.          Time[fs]        Kin.[a.u.]          Temp[K]            Pot.[a.u.]        Cons Qty[a.u.]        UsedTime[s]
         0            0.000000         0.275037913       300.000000000     -1103.075021217     -1102.799983305         0.000000000
         1            0.500000         0.279053523       304.380062273     -1103.080241628     -1102.800068341        45.724032503
         2            1.000000         0.272812454       297.572561847     -1103.091275634     -1102.800312446         8.636981886
         3            1.500000         0.285217298       311.103253091     -1103.107482577     -1102.800675347         8.593835013
         4            2.000000         0.286598969       312.610323477     -1103.120239672     -1102.800883823         8.948247053
         5            2.500000         0.304630873       332.278779280     -1103.131336337     -1102.801020627         8.608176064
         6            3.000000         0.333043894       363.270530282     -1103.137315027     -1102.801041952         8.635551464
         7            3.500000         0.331062490       361.109295880     -1103.137937936     -1102.800900896         8.633616433
         8            4.000000         0.320479260       349.565545184     -1103.134693277     -1102.800682943         9.064105762
         9            4.500000         0.317117153       345.898297849     -1103.130822322     -1102.800524727         7.877252568
        10            5.000000         0.313488816       341.940657604     -1103.129027612     -1102.800447534        10.989856737
        11            5.500000         0.331724688       361.831594247     -1103.133134743     -1102.800526847         7.869065050
        12            6.000000         0.331824820       361.940813658     -1103.137537558     -1102.800635649         7.850670576
        13            6.500000         0.324580924       354.039471301     -1103.141896309     -1102.800703601         7.876562031
        14            7.000000         0.315919174       344.591592514     -1103.143795954     -1102.800728546         7.850648358
        15            7.500000         0.332018868       362.152473825     -1103.142788378     -1102.800697383         7.922129853
        16            8.000000         0.335481479       365.929346330     -1103.143284854     -1102.800722606         8.591434479
        17            8.500000         0.314069796       342.574367064     -1103.141119960     -1102.800714997         7.852882257
        18            9.000000         0.299931184       327.152553203     -1103.138973056     -1102.800707619         7.828632727
        19            9.500000         0.296470938       323.378259206     -1103.134550000     -1102.800611128         7.832438380
        20           10.000000         0.295013312       321.788341308     -1103.132322803     -1102.800540342        10.559813071
        21           10.500000         0.303012794       330.513846238     -1103.132181918     -1102.800475363         8.633744452
        22           11.000000         0.301647351       329.024476967     -1103.132829717     -1102.800446938         7.852776757
        23           11.500000         0.305659890       333.401188295     -1103.135463464     -1102.800500898         7.829368014
        24           12.000000         0.298987884       326.123640238     -1103.138522584     -1102.800540048         7.850251893
        25           12.500000         0.285399678       311.302185648     -1103.139864176     -1102.800544771         7.849574519
        26           13.000000         0.277601451       302.796202272     -1103.139675076     -1102.800561204         7.941593654
        27           13.500000         0.291590135       318.054480495     -1103.139502045     -1102.800604661         7.831346640
        28           14.000000         0.276096951       301.155155097     -1103.140297299     -1102.800662950         7.853198925
        29           14.500000         0.279550837       304.922511174     -1103.142596855     -1102.800692158         7.838231293
        30           15.000000         0.294563585       321.297796994     -1103.142840774     -1102.800626612        11.232591987
        31           15.500000         0.304631720       332.279703713     -1103.142211313     -1102.800507400         7.878498124
        32           16.000000         0.303090533       330.598640108     -1103.143167915     -1102.800518474         8.790810497
        33           16.500000         0.285304646       311.198529188     -1103.144429244     -1102.800595057         7.875009600
        34           17.000000         0.297654914       324.669691364     -1103.148216259     -1102.800737113         7.834281877
        35           17.500000         0.293314791       319.935664074     -1103.150026848     -1102.800799194         7.861498898
        36           18.000000         0.293612371       320.260252726     -1103.152237090     -1102.800856688         7.837336767
        37           18.500000         0.309008641       337.053868404     -1103.151433432     -1102.800828198         7.894088145
        38           19.000000         0.281223918       306.747439728     -1103.147065453     -1102.800717924         7.834980551
        39           19.500000         0.285035952       310.905448315     -1103.145049998     -1102.800619031         7.826853344
        40           20.000000         0.281499128       307.047626961     -1103.149358230     -1102.800703784        11.418406248
        41           20.500000         0.305091835       332.781577510     -1103.156865151     -1102.800869207         7.836271420
        42           21.000000         0.309999425       338.134574337     -1103.163354387     -1102.801046899         7.896926474
        43           21.500000         0.303475561       331.018613121     -1103.166498233     -1102.801113819         7.946787700
        44           22.000000         0.287510621       313.604715411     -1103.167876491     -1102.801103371         7.876699882
        45           22.500000         0.291610453       318.076642454     -1103.167054498     -1102.801035091         7.830554744
        46           23.000000         0.284133912       309.921540880     -1103.167634684     -1102.801029302         7.830795074
        47           23.500000         0.281560400       307.114460006     -1103.171109264     -1102.801079283         7.847578030
        48           24.000000         0.295555289       322.379506641     -1103.175112093     -1102.801132798         7.897698564
        49           24.500000         0.297564904       324.571512668     -1103.179465945     -1102.801163906         7.832510069
        50           25.000000         0.297388014       324.378567634     -1103.182486508     -1102.801197053        10.737086631
        51           25.500000         0.290070433       316.396852392     -1103.184106398     -1102.801192690         7.854357149
        52           26.000000         0.281285945       306.815095822     -1103.187663304     -1102.801266777         7.858436821
        53           26.500000         0.293061295       319.659161414     -1103.188991355     -1102.801306666         7.891346108
        54           27.000000         0.295520323       322.341367284     -1103.190103624     -1102.801302856         7.831297550
        55           27.500000         0.285264460       311.154695433     -1103.190461095     -1102.801241975         7.861260487
        56           28.000000         0.261289914       285.004250384     -1103.191756178     -1102.801204752         7.833347859
        57           28.500000         0.279293905       304.642261205     -1103.193005291     -1102.801229797         7.840945726
        58           29.000000         0.277787106       302.998706522     -1103.190300134     -1102.801164358         7.857118122
        59           29.500000         0.283295702       309.007256259     -1103.187790247     -1102.801100053         7.903540812
        60           30.000000         0.278320417       303.580420813     -1103.186612741     -1102.801052736        10.728409441
        61           30.500000         0.288115519       314.264513215     -1103.189592049     -1102.801113787         7.828677157
        62           31.000000         0.299152463       326.303155930     -1103.190727664     -1102.801111090         7.863848539
        63           31.500000         0.306611515       334.439182403     -1103.190684033     -1102.801096380         7.832884535
        64           32.000000         0.309706385       337.814938539     -1103.189670208     -1102.801065543         7.863328777
        65           32.500000         0.309916566       338.044195270     -1103.187188993     -1102.801033619         7.875866489
        66           33.000000         0.311254767       339.503849665     -1103.181639638     -1102.800888790         8.077621957
        67           33.500000         0.318040763       346.905733933     -1103.179954061     -1102.800807468         7.880385477
        68           34.000000         0.325506402       355.048945152     -1103.181768170     -1102.800862758         7.079658654
        69           34.500000         0.333231898       363.475597134     -1103.185427351     -1102.800931022         7.077382959
        70           35.000000         0.342868465       373.986766410     -1103.187742875     -1102.800927283        10.626210084
        71           35.500000         0.335128361       365.544180759     -1103.188571756     -1102.800903452         7.831741735
        72           36.000000         0.331072623       361.120348377     -1103.191176484     -1102.800938897         7.858519049
        73           36.500000         0.328186205       357.971963070     -1103.191549522     -1102.800941453         7.855100451
        74           37.000000         0.304698583       332.352634707     -1103.191402279     -1102.800949580         7.899184361
        75           37.500000         0.317750768       346.589419170     -1103.192633753     -1102.800992481         7.828893054
        76           38.000000         0.309163205       337.222460268     -1103.191631903     -1102.800936790         7.870057888
        77           38.500000         0.290971472       317.379669247     -1103.190114658     -1102.800833231         7.857629508
        78           39.000000         0.296091261       322.964123461     -1103.189545766     -1102.800761753         7.858824624
        79           39.500000         0.296158235       323.037175241     -1103.190062139     -1102.800731053         7.879231790
        80           40.000000         0.287223332       313.291352076     -1103.191278159     -1102.800731075        10.473439785
        81           40.500000         0.307066040       334.934959313     -1103.194344549     -1102.800811774         7.096259765
        82           41.000000         0.296772529       323.707221933     -1103.197522693     -1102.800892544         7.896380404
        83           41.500000         0.302601448       330.065166577     -1103.200530903     -1102.800991564         7.081279177
        84           42.000000         0.305946356       333.713653779     -1103.203142809     -1102.801096877         7.158251571
        85           42.500000         0.301739764       329.125277147     -1103.200493213     -1102.801084137         7.100613905
        86           43.000000         0.296134348       323.011120325     -1103.199252084     -1102.801050661         7.864465825
        87           43.500000         0.290020032       316.341877443     -1103.199213693     -1102.801062779         7.093044087
        88           44.000000         0.299053102       326.194777584     -1103.198829799     -1102.801080379         7.106732145
        89           44.500000         0.301663046       329.041596853     -1103.197016567     -1102.801086521         7.834736008
        90           45.000000         0.300322128       327.578977953     -1103.193687566     -1102.801047904        10.998494800
        91           45.500000         0.301922504       329.324602191     -1103.191039121     -1102.800987499         7.911145302
        92           46.000000         0.300128864       327.368173658     -1103.186762551     -1102.800872850         7.874093924
        93           46.500000         0.274819236       299.761476147     -1103.182540027     -1102.800746972         7.136327880
        94           47.000000         0.265743062       289.861560445     -1103.180823485     -1102.800681411         7.846957710
        95           47.500000         0.285517403       311.430594989     -1103.185974137     -1102.800785407         7.861992091
        96           48.000000         0.287570340       313.669853960     -1103.192174618     -1102.800906144         7.891384020
        97           48.500000         0.296848991       323.790624055     -1103.197563082     -1102.800991813         7.883845191
        98           49.000000         0.291406327       317.853990856     -1103.199838524     -1102.801024213         7.094699390
        99           49.500000         0.296551047       323.465638985     -1103.197073918     -1102.800930440         7.107127381
       100           50.000000         0.262837500       286.692293428     -1103.193447467     -1102.800826681        11.847292855
       101           50.500000         0.272543685       297.279399554     -1103.191919252     -1102.800728009         7.119983856
       102           51.000000         0.284748626       310.592044809     -1103.191886392     -1102.800681317         7.088799236
       103           51.500000         0.282279758       307.899105633     -1103.190496601     -1102.800621158         7.864436382
       104           52.000000         0.274848079       299.792937250     -1103.191356151     -1102.800659048         7.083535748
       105           52.500000         0.280885457       306.378259887     -1103.194474843     -1102.800768680         8.228483267
       106           53.000000         0.283345106       309.061143113     -1103.199025464     -1102.800903039         7.887192676
       107           53.500000         0.291781600       318.263322452     -1103.202886726     -1102.801007106         7.138036590
       108           54.000000         0.289047877       315.281490553     -1103.205933564     -1102.801097029         7.083095793
       109           54.500000         0.297229839       324.206037219     -1103.207526849     -1102.801111273         7.874579361
       110           55.000000         0.290410139       316.767389560     -1103.204793361     -1102.801017214        10.518028773
       111           55.500000         0.292798094       319.372072415     -1103.200904527     -1102.800920664         7.083451154
       112           56.000000         0.305939231       333.705882698     -1103.197574771     -1102.800850871         7.518544044
       113           56.500000         0.286464454       312.463599568     -1103.194611475     -1102.800806433         7.095363908
       114           57.000000         0.282418292       308.050213046     -1103.194103419     -1102.800820397         7.898109440
       115           57.500000         0.297350710       324.337878679     -1103.194475939     -1102.800828636         7.137959333
       116           58.000000         0.296579720       323.496914026     -1103.194217242     -1102.800819286         8.470861740
       117           58.500000         0.274808944       299.750250562     -1103.197011282     -1102.800892831         7.055112882
       118           59.000000         0.287622733       313.727002734     -1103.199860486     -1102.800957872         7.049208747
       119           59.500000         0.300038326       327.269418476     -1103.199503436     -1102.800981715         7.179183286
       120           60.000000         0.294791087       321.545947065     -1103.197332164     -1102.800909024        10.309658960
       121           60.500000         0.275436826       300.435118404     -1103.196078635     -1102.800851119         7.044506764
       122           61.000000         0.283878823       309.643299884     -1103.197168266     -1102.800872620         7.045711946
       123           61.500000         0.283924979       309.693645026     -1103.200217030     -1102.800963564         7.050212232
       124           62.000000         0.293294489       319.913519695     -1103.200907898     -1102.800995186         7.043935684
       125           62.500000         0.293957547       320.636755704     -1103.201422704     -1102.800982487         7.060209665
       126           63.000000         0.298201002       325.265341699     -1103.201167925     -1102.800875870         7.040782992
       127           63.500000         0.313749515       342.225017373     -1103.203470639     -1102.800845621         7.071304264
       128           64.000000         0.308015674       335.970780721     -1103.202961317     -1102.800838223         7.076213138
       129           64.500000         0.307467704       335.373078156     -1103.203493666     -1102.800857236         7.032929560
       130           65.000000         0.317633340       346.461333210     -1103.204545369     -1102.800915815         9.695476420
       131           65.500000         0.299641693       326.836787990     -1103.203802038     -1102.800922590         7.053115802
       132           66.000000         0.293709656       320.366367381     -1103.201690279     -1102.800912866         7.056089841
       133           66.500000         0.301172325       328.506338326     -1103.195134414     -1102.800788564         7.066895746
       134           67.000000         0.293871306       320.542687922     -1103.189269744     -1102.800661149         7.044555882
       135           67.500000         0.294013529       320.697819078     -1103.184393667     -1102.800533764         7.066471957
       136           68.000000         0.294811606       321.568328469     -1103.181436254     -1102.800462321         7.083012413
       137           68.500000         0.295523015       322.344303813     -1103.180999347     -1102.800448915         7.046571143
       138           69.000000         0.280225150       305.658024570     -1103.182483625     -1102.800512698         7.046176644
       139           69.500000         0.279275785       304.622495988     -1103.186907525     -1102.800648214         7.781190353
       140           70.000000         0.300019563       327.248953068     -1103.193262184     -1102.800857095        10.451915780
       141           70.500000         0.296896573       323.842524445     -1103.196351652     -1102.801003714         7.075683165
       142           71.000000         0.306658164       334.490064500     -1103.193940237     -1102.801035882         7.822135096
       143           71.500000         0.284451139       310.267558273     -1103.186955036     -1102.800935440         7.042729041
       144           72.000000         0.290820175       317.214640354     -1103.180346667     -1102.800748514         7.045396371
       145           72.500000         0.287291743       313.365972408     -1103.172384321     -1102.800488565         7.039596908
       146           73.000000         0.268957372       293.367596982     -1103.169665617     -1102.800415081         8.098900929
       147           73.500000         0.273372651       298.183601865     -1103.171513246     -1102.800535448         7.090257773
       148           74.000000         0.274241266       299.131050381     -1103.175702649     -1102.800697419         7.358324796
       149           74.500000         0.281662242       307.225545247     -1103.180260035     -1102.800849841         7.044327432
       150           75.000000         0.286431112       312.427231462     -1103.185487601     -1102.800997512        10.193200974
       151           75.500000         0.299035700       326.175795961     -1103.189131457     -1102.801058560         7.043427156
       152           76.000000         0.288224921       314.383844030     -1103.189383625     -1102.800968482         7.793275405
       153           76.500000         0.276368028       301.450835202     -1103.187320256     -1102.800803995         7.038273707
       154           77.000000         0.267182938       291.432118404     -1103.184818182     -1102.800667359         7.079478875
       155           77.500000         0.261717859       285.471035904     -1103.187495245     -1102.800694264         7.087395735
       156           78.000000         0.266897564       291.120843697     -1103.191681477     -1102.800754996         7.062598461
       157           78.500000         0.270877560       295.462059715     -1103.199703207     -1102.800878324         7.787659565
       158           79.000000         0.295294155       322.094672991     -1103.207509442     -1102.801018752         7.788526833
       159           79.500000         0.299624997       326.818576075     -1103.211101754     -1102.801048281         7.782607974
       160           80.000000         0.303081358       330.588632402     -1103.209570314     -1102.801017226        11.306549706
       161           80.500000         0.287661831       313.769649146     -1103.205246308     -1102.800925254         7.811417760
       162           81.000000         0.273339912       298.147891229     -1103.198315271     -1102.800778805         7.834031153
       163           81.500000         0.285524995       311.438876786     -1103.193076588     -1102.800665777         7.052770011
       164           82.000000         0.284962103       310.824897229     -1103.189636050     -1102.800589350         7.796313014
       165           82.500000         0.291467478       317.920691793     -1103.187211060     -1102.800564399         7.815716833
       166           83.000000         0.289416274       315.683322785     -1103.189428997     -1102.800636876         7.798375912
       167           83.500000         0.284313091       310.116981296     -1103.190810775     -1102.800665305         7.849520821
       168           84.000000         0.293833175       320.501096284     -1103.192846425     -1102.800734004         8.006357238
       169           84.500000         0.282895165       308.570366154     -1103.193455285     -1102.800765454         7.815093637
       170           85.000000         0.291842862       318.330144703     -1103.192615921     -1102.800740744        11.241686746
       171           85.500000         0.267938390       292.256133861     -1103.190083807     -1102.800651619         7.827978889
       172           86.000000         0.263382617       287.286884582     -1103.190281781     -1102.800607381         7.842984680
       173           86.500000         0.276185547       301.251791862     -1103.193729623     -1102.800656895         7.026504364
       174           87.000000         0.283437573       309.162003120     -1103.198058147     -1102.800703560         7.804234114
       175           87.500000         0.269898769       294.394434467     -1103.203110521     -1102.800775861         7.819078173
       176           88.000000         0.274751331       299.687409082     -1103.208104397     -1102.800829686         7.797832308
       177           88.500000         0.289235498       315.486140434     -1103.213746680     -1102.800894655         7.059109379
       178           89.000000         0.295524200       322.345596275     -1103.216807445     -1102.800870359         7.059392340
       179           89.500000         0.306057560       333.834950520     -1103.219641292     -1102.800841238         7.057435913
       180           90.000000         0.305148684       332.843586199     -1103.221536684     -1102.800817010        11.046727877
       181           90.500000         0.324732140       354.204411861     -1103.224637365     -1102.800903271         7.801899225
       182           91.000000         0.308904520       336.940297307     -1103.228944986     -1102.801028147         7.840237755
       183           91.500000         0.314314449       342.841224358     -1103.229589392     -1102.801040877         7.779762737
       184           92.000000         0.297979465       325.023698699     -1103.228744470     -1102.801016189         7.842209946
       185           92.500000         0.285866608       311.811494278     -1103.226946415     -1102.801006048         7.861462673
       186           93.000000         0.288021062       314.161483883     -1103.223820628     -1102.800961129         7.785577785
       187           93.500000         0.277226009       302.386685368     -1103.219411011     -1102.800892753         7.818071527
       188           94.000000         0.282092231       307.694559516     -1103.215528017     -1102.800806720         7.780028973
       189           94.500000         0.273149630       297.940339765     -1103.213310856     -1102.800801352         7.818574661
       190           95.000000         0.263961311       287.918100352     -1103.210375358     -1102.800775216        11.579706261
       191           95.500000         0.270711694       295.281139724     -1103.210206955     -1102.800810357         7.044592120
       192           96.000000         0.253975512       277.026003437     -1103.213027612     -1102.800888351         7.048039805
       193           96.500000         0.280071435       305.490358509     -1103.211297401     -1102.800820924         7.034476090
       194           97.000000         0.279538630       304.909196688     -1103.210249780     -1102.800789738         7.793465989
       195           97.500000         0.276865363       301.993307317     -1103.208583695     -1102.800744041         7.040382210
       196           98.000000         0.272104855       296.800741841     -1103.205948551     -1102.800704645         7.044656506
       197           98.500000         0.271633399       296.286497475     -1103.206056366     -1102.800741352         7.816764480
       198           99.000000         0.261282109       284.995736886     -1103.206462101     -1102.800742715         7.085524188
       199           99.500000         0.260692335       284.352436251     -1103.205655177     -1102.800690274         7.772662574
       200          100.000000         0.265602033       289.707732119     -1103.203731636     -1102.800614006        11.363854643
       201          100.500000         0.261351197       285.071096017     -1103.201569545     -1102.800552595         7.807052029
       202          101.000000         0.266238298       290.401743726     -1103.203052762     -1102.800602001         7.769851211
       203          101.500000         0.278194281       303.442835912     -1103.203540701     -1102.800600446         7.773162186
       204          102.000000         0.284255627       310.054301876     -1103.206428071     -1102.800620521         7.795775130
       205          102.500000         0.283701965       309.450390574     -1103.209346727     -1102.800637412         7.824924357
       206          103.000000         0.293091394       319.691992211     -1103.213386691     -1102.800710551         7.802368252
       207          103.500000         0.282045464       307.643548191     -1103.217492539     -1102.800821060         7.792601289
       208          104.000000         0.291041155       317.455675913     -1103.219014102     -1102.800901910         8.814819055
       209          104.500000         0.292484286       319.029783903     -1103.219058857     -1102.800917368         7.806312000
       210          105.000000         0.286705731       312.726774135     -1103.216620879     -1102.800867541        10.845076488
       211          105.500000         0.267524921       291.805139226     -1103.212799651     -1102.800722569         7.046655325
       212          106.000000         0.255975589       279.207604910     -1103.210611839     -1102.800583020         7.028771032
       213          106.500000         0.268282420       292.631387210     -1103.212700799     -1102.800572103         7.054207614
       214          107.000000         0.288416651       314.592975677     -1103.217293714     -1102.800670796         7.033336528
       215          107.500000         0.294463098       321.188190438     -1103.224066147     -1102.800862760         7.046541130
       216          108.000000         0.298829040       325.950380125     -1103.231088277     -1102.801050104         7.040152248
       217          108.500000         0.308314603       336.296839685     -1103.234944732     -1102.801099790         7.054040801
       218          109.000000         0.285944055       311.895969556     -1103.233016550     -1102.800993596         7.042673191
       219          109.500000         0.274377419       299.279560895     -1103.229823971     -1102.800882590         7.031334570
       220          110.000000         0.281862998       307.444520883     -1103.229296678     -1102.800830112         9.987893777
       221          110.500000         0.282958688       308.639654484     -1103.232295398     -1102.800851446         7.053278264
       222          111.000000         0.280678674       306.152709606     -1103.236374026     -1102.800869678         7.033745700
       223          111.500000         0.282131595       307.737495528     -1103.240650467     -1102.800903410         7.054714149
       224          112.000000         0.275001765       299.960571210     -1103.243554262     -1102.800973498         7.063443765
       225          112.500000         0.277221005       302.381226587     -1103.248800215     -1102.801105778         8.341836613
       226          113.000000         0.290026751       316.349206374     -1103.251141310     -1102.801132849         7.045322130
       227          113.500000         0.293113848       319.716484446     -1103.252080321     -1102.801077172         7.019299336