ITEM: TIMESTEP
0
ITEM: NUMBER OF ATOMS
360
ITEM: BOX BOUNDS pp pp pp
0.0000000000000000e+00 6.6943295008216896e+00
0.0000000000000000e+00 6.6943295008216896e+00
0.0000000000000000e+00 6.6943295008216896e+00
ITEM: ATOMS id type xs ys zs
107 1 0.173315 0.171056 0.143379
99 1 0.0744492 0.074622 0.0813157
169 1 0.00330524 0.110997 0.219612
155 1 0.0290068 0.245698 0.113383
39 1 0.161369 0.0111688 0.220954
77 1 0.230872 0.0809737 0.0178029
111 1 0.187911 0.24535 0.00649822
41 1 0.405783 0.206017 0.22342
238 1 0.439213 0.125355 0.0480538
8 1 0.469883 0.0695153 0.212462
33 1 0.31806 0.196876 0.0691699
149 1 0.316667 0.085159 0.166042
356 2 0.441867 0.248247 0.0817899
201 1 0.604612 0.0640961 0.150484
196 1 0.539411 0.211026 0.14687
165 1 0.696327 0.237686 0.067112
154 1 0.732659 0.135989 0.220192
309 2 0.743385 0.014916 0.178608
123 1 0.928798 0.0370854 0.0367503
42 1 0.752593 0.0900468 0.0754538
334 2 0.919776 0.180261 0.151745
48 1 0.873554 0.204569 0.0267412
157 1 0.868286 0.0633423 0.17154
237 1 0.825145 0.249734 0.179845
326 2 0.102405 0.273194 0.215915
78 1 0.0443059 0.375262 0.18518
253 1 0.194459 0.355058 0.124115
317 2 0.176038 0.39909 0.235815
62 1 0.0602508 0.366115 0.0118674
222 1 0.253091 0.264461 0.239469
359 2 0.475232 0.318697 0.179863
60 1 0.443328 0.4494 0.193945
7 1 0.360156 0.337193 0.12205
291 2 0.424994 0.45753 0.0557861
129 1 0.296824 0.44289 0.222608
113 1 0.292139 0.497981 0.0615714
263 1 0.682383 0.274738 0.216791
235 1 0.685166 0.396927 0.072726
181 1 0.516631 0.369707 0.0655358
265 1 0.721863 0.451385 0.200522
164 1 0.590633 0.386669 0.204524
259 1 0.975668 0.484042 0.075203
342 2 0.797419 0.375239 0.13645
57 1 0.876852 0.420714 0.225191
121 1 0.914212 0.344943 0.089895
186 1 0.816467 0.479982 0.067601
357 2 0.227024 0.136778 0.254353
283 1 0.052215 0.078691 0.40552
21 1 0.11201 0.172995 0.299723
139 1 0.178656 0.189274 0.435774
115 1 0.207137 0.0423206 0.361502
279 1 0.00297312 0.244998 0.417334
119 1 0.330953 0.125143 0.34598
167 1 0.489491 0.0729116 0.380778
1 1 0.433313 0.224861 0.407496
132 1 0.324103 0.0435241 0.476377
320 2 0.433689 0.113976 0.485223
4 1 0.677589 0.0105615 0.286284
43 1 0.588856 0.148042 0.28685
294 2 0.578434 0.192427 0.419889
246 1 0.638521 0.0396239 0.440829
251 1 0.676358 0.180716 0.499011
96 1 0.75574 0.114893 0.373236
307 2 0.778591 0.243147 0.316406
325 2 0.838247 0.0205135 0.29576
183 1 0.825149 0.235465 0.447141
247 1 0.874869 0.158487 0.289308
288 1 0.896811 0.0678978 0.444675
268 1 0.128153 0.479636 0.332514
318 2 0.15445 0.311824 0.458394
153 1 0.217337 0.45488 0.499029
219 1 0.0741206 0.413093 0.454474
204 1 0.128268 0.324199 0.329677
349 2 0.247791 0.303202 0.370374
3 1 0.335496 0.318651 0.460028
198 1 0.376868 0.336497 0.299599
2 1 0.265127 0.431865 0.364388
81 1 0.47801 0.3829 0.42816
178 1 0.529915 0.284663 0.307389
341 2 0.50732 0.42144 0.294355
258 1 0.670732 0.278418 0.388776
9 1 0.61916 0.420776 0.377076
269 1 0.987519 0.389572 0.326592
53 1 0.979372 0.26317 0.259873
301 2 0.891082 0.303835 0.346933
290 2 0.757066 0.37101 0.43681
103 1 0.906536 0.375776 0.454912
205 1 0.76665 0.36463 0.313316
192 1 0.822634 0.489234 0.374438
226 1 0.132311 0.0565035 0.686224
327 2 0.00785074 0.174232 0.675409
360 2 0.152839 0.14727 0.592426
109 1 0.0207778 0.0988969 0.548282
91 1 0.185763 0.199656 0.70861
220 1 0.166214 0.0102226 0.509626
257 1 0.0752694 0.23196 0.557697
90 1 0.268947 0.0985682 0.621658
24 1 0.387538 0.217019 0.560208
245 1 0.424661 0.0408607 0.617107
83 1 0.481591 0.154536 0.721667
346 2 0.290328 0.169771 0.503346
315 2 0.339724 0.000428855 0.719757
86 1 0.729691 0.0859272 0.664562
172 1 0.550192 0.107658 0.555982
142 1 0.581927 0.0226079 0.701219
70 1 0.625206 0.216637 0.667789
5 1 0.771826 0.0280344 0.522315
144 1 0.927635 0.245925 0.746773
207 1 0.919213 0.22353 0.581316
256 1 0.771867 0.241293 0.621924
321 2 0.859242 0.156203 0.691883
152 1 0.88785 0.0623184 0.610609
26 1 0.958158 0.0668439 0.738146
345 2 0.815442 0.152819 0.543791
323 2 0.0105161 0.427897 0.670902
13 1 0.2317 0.262588 0.573211
49 1 0.130259 0.402641 0.60838
234 1 0.0573673 0.297044 0.695387
340 2 0.00575068 0.340949 0.542085
161 1 0.21244 0.34082 0.74415
32 1 0.279381 0.401008 0.614821
104 1 0.419963 0.365473 0.575703
74 1 0.339158 0.27872 0.696613
179 1 0.451611 0.390946 0.733193
319 2 0.333404 0.439012 0.714763
206 1 0.695919 0.342102 0.541586
68 1 0.545895 0.26725 0.52632
308 2 0.500195 0.282623 0.673511
355 2 0.579784 0.411623 0.502436
215 1 0.569685 0.381696 0.636552
280 1 0.687954 0.341234 0.735272
101 1 0.677493 0.488056 0.567865
296 2 0.817666 0.318882 0.717298
175 1 0.782495 0.436266 0.667372
295 2 0.823146 0.357463 0.563443
191 1 0.911953 0.363348 0.64563
136 1 0.834491 0.486625 0.536776
126 1 0.0646977 0.159595 0.807662
55 1 0.190189 0.0742305 0.827171
339 2 0.162423 0.148785 0.925731
273 1 0.0379869 0.185942 0.971446
305 2 0.0676733 0.0374038 0.800752
67 1 0.112053 0.0136216 0.93191
22 1 0.338011 0.116533 0.769134
338 2 0.42026 0.222304 0.949487
61 1 0.499806 0.128875 0.879315
278 1 0.345179 0.129194 0.917787
282 1 0.261983 0.231125 0.851012
105 1 0.41668 0.247178 0.811931
137 1 0.445557 0.00612327 0.790535
322 2 0.429061 0.012874 0.91642
224 1 0.63271 0.12017 0.978759
182 1 0.644718 0.0994478 0.814772
335 2 0.708679 0.0197437 0.914437
284 1 0.540942 0.248215 0.983164
230 1 0.768328 0.189792 0.76649
213 1 0.815353 0.0517079 0.782443
232 1 0.778378 0.142424 0.92164
108 1 0.92065 0.154674 0.875212
156 1 0.969021 0.00665514 0.874063
292 2 0.101686 0.409994 0.772286
94 1 0.0860355 0.473482 0.876575
313 2 0.0213961 0.267639 0.827512
271 1 0.225157 0.383482 0.963441
120 1 0.13375 0.305316 0.876184
266 1 0.212532 0.496793 0.774986
87 1 0.38022 0.33372 0.971702
281 1 0.319022 0.392316 0.829758
140 1 0.493881 0.35057 0.883823
71 1 0.409176 0.47669 0.920446
54 1 0.560877 0.485966 0.954674
353 2 0.705613 0.472311 0.787779
76 1 0.584578 0.441412 0.778125
170 1 0.68544 0.262885 0.912618
270 1 0.577766 0.253961 0.796206
255 1 0.692559 0.411208 0.898786
310 2 0.604581 0.360685 0.973625
17 1 0.818579 0.376545 0.831154
252 1 0.947525 0.301828 0.914957
93 1 0.97858 0.388811 0.788334
300 2 0.826636 0.260093 0.874425
106 1 0.800313 0.344877 0.979295
118 1 0.913244 0.453205 0.925186
45 1 0.167653 0.687703 0.234327
148 1 0.153166 0.523387 0.196279
316 2 0.0388589 0.572779 0.13208
243 1 0.112771 0.659083 0.0805223
89 1 0.00647646 0.687069 0.221998
85 1 0.130781 0.504638 0.0330051
312 2 0.415917 0.69036 0.0774223
200 1 0.359461 0.578817 0.168544
211 1 0.312439 0.714837 0.173843
302 2 0.485469 0.568045 0.178449
141 1 0.45157 0.578125 0.028391
29 1 0.297331 0.637039 0.0323416
267 1 0.553658 0.672291 0.114062
10 1 0.685786 0.544446 0.0153528
79 1 0.671698 0.596535 0.187495
14 1 0.711517 0.74203 0.197543
135 1 0.56662 0.503485 0.104943
50 1 0.819484 0.566399 0.208359
210 1 0.952628 0.654792 0.0911826
124 1 0.770669 0.654672 0.0923654
158 1 0.977233 0.529276 0.238268
80 1 0.864843 0.703266 0.242417
264 1 0.0961185 0.859104 0.212332
286 1 0.194951 0.790012 0.117892
23 1 0.137027 0.927198 0.0849439
348 2 0.238751 0.990134 0.104932
147 1 0.451167 0.789071 0.160154
358 2 0.428146 0.875057 0.0711478
36 1 0.348189 0.793829 0.0318304
195 1 0.326056 0.880427 0.149587
47 1 0.497165 0.930603 0.172491
298 2 0.254339 0.81175 0.230847
331 2 0.283378 0.971361 0.232068
176 1 0.356977 0.984098 0.0410335
285 1 0.505099 0.977233 0.0257093
28 1 0.70155 0.787285 0.0371272
194 1 0.574632 0.855331 0.0719229
40 1 0.674924 0.909534 0.171646
27 1 0.66748 0.965036 0.0285012
151 1 0.573016 0.784735 0.229667
72 1 0.998269 0.799499 0.0922128
297 2 0.893786 0.874098 0.0292402
30 1 0.81385 0.948751 0.0915667
190 1 0.992228 0.940045 0.145662
180 1 0.846875 0.777354 0.112586
56 1 0.812561 0.896052 0.239048
344 2 0.120478 0.530804 0.44501
197 1 0.0708592 0.608415 0.323986
324 2 0.13543 0.713259 0.436351
110 1 0.245802 0.583599 0.431847
233 1 0.242165 0.741007 0.392008
236 1 0.0270699 0.63357 0.479154
122 1 0.263929 0.570428 0.289509
289 2 0.469674 0.606116 0.364902
329 2 0.313149 0.685444 0.294131
277 1 0.373862 0.664266 0.421618
199 1 0.448694 0.669816 0.2564
34 1 0.393697 0.505325 0.339574
46 1 0.361443 0.505547 0.485751
6 1 0.534012 0.519257 0.460575
145 1 0.678267 0.741744 0.435194
250 1 0.55995 0.536599 0.288881
38 1 0.543909 0.6652 0.436014
177 1 0.670933 0.569215 0.431208
59 1 0.638646 0.675301 0.316427
306 2 0.710366 0.545051 0.289444
330 2 0.915525 0.594262 0.330141
276 1 0.956998 0.714374 0.375667
128 1 0.785806 0.648581 0.35686
159 1 0.978864 0.519044 0.407973
100 1 0.882923 0.628206 0.492726
37 1 0.173873 0.844235 0.49027
64 1 0.0903733 0.935857 0.346806
262 1 0.0956765 0.78457 0.348297
69 1 0.240761 0.889795 0.328758
337 2 0.242699 0.936783 0.446193
188 1 0.0332287 0.802451 0.49226
244 1 0.392828 0.96879 0.313535
299 2 0.439191 0.776144 0.473126
112 1 0.369841 0.808939 0.284863
166 1 0.366688 0.871531 0.438743
275 1 0.484667 0.951695 0.497439
248 1 0.504468 0.808585 0.370939
350 2 0.60202 0.899836 0.453283
171 1 0.543949 0.953573 0.314671
228 1 0.654145 0.865385 0.340681
143 1 0.724827 0.878022 0.499435
16 1 0.960457 0.99651 0.297172
11 1 0.948153 0.886616 0.39825
272 1 0.957409 0.82906 0.257155
114 1 0.845005 0.769002 0.477049
130 1 0.802437 0.797288 0.343083
65 1 0.797911 0.947779 0.393294
217 1 0.175102 0.651967 0.709639
168 1 0.00106512 0.648939 0.630684
162 1 0.127783 0.554549 0.580731
102 1 0.0755849 0.526363 0.731442
125 1 0.142948 0.694999 0.570428
160 1 0.366052 0.692681 0.707729
12 1 0.278086 0.544704 0.636963
203 1 0.452603 0.650433 0.567324
97 1 0.284048 0.662999 0.550119
31 1 0.438086 0.503948 0.626195
127 1 0.606042 0.621274 0.587213
84 1 0.68997 0.70239 0.685621
229 1 0.690775 0.558853 0.700243
193 1 0.528712 0.735709 0.664292
221 1 0.522682 0.602991 0.722418
66 1 0.909596 0.501965 0.70707
254 1 0.755165 0.670268 0.544232
347 2 0.924729 0.749826 0.590329
187 1 0.839085 0.66238 0.696016
351 2 0.781751 0.566781 0.624109
20 1 0.985287 0.504247 0.567583
336 2 0.0380282 0.996191 0.634806
19 1 0.0190728 0.959497 0.515949
287 1 0.0599981 0.781782 0.673548
225 1 0.133808 0.901533 0.623162
52 1 0.250991 0.797622 0.633863
214 1 0.389195 0.811211 0.571329
63 1 0.296842 0.935158 0.590861
260 1 0.375388 0.867811 0.732142
343 2 0.279515 0.79772 0.513945
328 2 0.691762 0.777057 0.57039
44 1 0.565917 0.786316 0.529012
241 1 0.500296 0.895677 0.652522
227 1 0.636794 0.850509 0.664248
173 1 0.617555 0.963382 0.567289
208 1 0.800261 0.790146 0.634608
223 1 0.877088 0.904767 0.545496
88 1 0.949051 0.924875 0.689955
133 1 0.770105 0.94029 0.653384
231 1 0.924009 0.771801 0.729656
303 2 0.120985 0.625733 0.812345
216 1 0.170759 0.650179 0.920403
35 1 0.0056133 0.658933 0.783079
274 1 0.0218676 0.582698 0.9637
131 1 0.380447 0.547592 0.78867
95 1 0.305172 0.661743 0.855133
249 1 0.267644 0.532493 0.916273
354 2 0.401595 0.65191 0.937824
58 1 0.436649 0.749695 0.850722
134 1 0.48848 0.749358 0.989641
212 1 0.489114 0.604917 0.867037
202 1 0.608816 0.666527 0.972085
117 1 0.653632 0.582036 0.84201
242 1 0.720601 0.727706 0.89171
82 1 0.592188 0.724637 0.806679
304 2 0.74557 0.65017 0.790895
311 2 0.955703 0.516972 0.83018
261 1 0.988008 0.724668 0.933475
51 1 0.865038 0.607553 0.966279
293 2 0.783604 0.5043 0.950561
184 1 0.811699 0.541455 0.835162
240 1 0.856026 0.674577 0.840462
15 1 0.220721 0.91518 0.753356
98 1 0.136598 0.757563 0.817204
189 1 0.131968 0.793219 0.971208
352 2 0.187203 0.876072 0.877645
163 1 0.0650691 0.893067 0.791457
218 1 0.248238 0.915716 0.9847
146 1 0.0113652 0.903696 0.973742
332 2 0.282573 0.765445 0.763545
138 1 0.303745 0.825071 0.866872
18 1 0.306882 0.982426 0.860943
92 1 0.431791 0.889109 0.922851
150 1 0.577899 0.988021 0.907146
239 1 0.687378 0.943139 0.799206
314 2 0.662444 0.824117 0.780979
185 1 0.602092 0.835381 0.922057
73 1 0.52951 0.879993 0.793021
174 1 0.762988 0.869592 0.932172
209 1 0.836619 0.986947 0.929958
25 1 0.788732 0.823131 0.781479
116 1 0.854484 0.769801 0.958724
333 2 0.837762 0.936216 0.814624
75 1 0.931306 0.856641 0.855556
ITEM: TIMESTEP
60000
ITEM: NUMBER OF ATOMS
360
ITEM: BOX BOUNDS pp pp pp
0.0000000000000000e+00 6.6943295008216896e+00
0.0000000000000000e+00 6.6943295008216896e+00
0.0000000000000000e+00 6.6943295008216896e+00
ITEM: ATOMS id type xs ys zs
48 1 0.0522017 0.126315 0.141253
47 1 0.196626 0.101217 0.102944
99 1 0.235503 0.235446 0.0486257
259 1 0.954572 0.484478 0.0498155
149 1 0.310729 0.19777 0.177396
112 1 0.282482 0.0129428 0.203156
196 1 0.498223 0.0900899 0.131674
140 1 0.350244 0.0844395 0.0711897
291 2 0.433946 0.219756 0.164707
341 2 0.671258 0.292818 0.200076
284 1 0.664617 0.200685 0.0814804
224 1 0.629939 0.260454 0.356916
181 1 0.515704 0.229892 0.0722986
42 1 0.796902 0.0862375 0.0386283
9 1 0.902968 0.432899 0.304063
237 1 0.952775 0.224483 0.0842473
273 1 0.898954 0.0861901 0.157087
307 2 0.885702 0.190348 0.253436
205 1 0.797878 0.215409 0.156011
5 1 0.74249 0.047772 0.472822
107 1 0.13999 0.244878 0.161145
268 1 0.159072 0.409602 0.198565
129 1 0.0279336 0.352619 0.0898481
111 1 0.244161 0.399267 0.0528345
334 2 0.0127997 0.21997 0.220277
124 1 0.117123 0.484945 0.0703756
357 2 0.264674 0.316513 0.156206
105 1 0.37119 0.3125 0.0729663
198 1 0.335736 0.426112 0.20045
317 2 0.657587 0.478766 0.0310279
41 1 0.395368 0.292835 0.267212
7 1 0.484408 0.39064 0.168611
320 2 0.480507 0.464746 0.431134
8 1 0.562457 0.220724 0.218957
342 2 0.734371 0.304526 0.0721739
161 1 0.260214 0.324225 0.483308
235 1 0.763488 0.386803 0.18441
203 1 0.613397 0.367664 0.0877358
339 2 0.493078 0.36933 0.0510745
359 2 0.335965 0.46898 0.0776338
80 1 0.629948 0.0383439 0.0729099
301 2 0.893852 0.439465 0.153387
17 1 0.908402 0.308607 0.192806
57 1 0.851215 0.356851 0.0561352
65 1 0.739196 0.453515 0.494304
191 1 0.99487 0.394998 0.423304
33 1 0.246773 0.116257 0.299664
155 1 0.101216 0.182599 0.302447
64 1 0.124683 0.0405907 0.235818
325 2 0.00438267 0.0373552 0.401827
53 1 0.0423117 0.148909 0.443577
21 1 0.189211 0.212894 0.415776
13 1 0.139405 0.0506475 0.392178
171 1 0.414708 0.108884 0.259287
115 1 0.349213 0.0345612 0.381881
245 1 0.449813 0.108841 0.483892
358 2 0.487656 0.058519 0.371957
81 1 0.345324 0.206213 0.387848
263 1 0.989905 0.0214828 0.0508981
180 1 0.618571 0.1082 0.415238
132 1 0.500105 0.188691 0.367696
285 1 0.576345 0.0674677 0.255092
154 1 0.698077 0.170132 0.265103
345 2 0.710469 0.183221 0.449623
309 2 0.704945 0.0464226 0.318574
157 1 0.970291 0.0954333 0.292509
279 1 0.817855 0.0925595 0.33471
206 1 0.606703 0.494462 0.397555
139 1 0.882643 0.140512 0.459587
204 1 0.936612 0.247096 0.359492
183 1 0.828758 0.347801 0.447752
253 1 0.228435 0.275822 0.28394
321 2 0.0761501 0.282371 0.39117
162 1 0.0489921 0.339295 0.274867
3 1 0.153241 0.374078 0.390378
340 2 0.0669604 0.46402 0.335647
71 1 0.799164 0.495723 0.0682324
258 1 0.799049 0.281383 0.296254
122 1 0.319875 0.409425 0.362907
292 2 0.524482 0.312935 0.302008
119 1 0.481724 0.446168 0.305033
201 1 0.739021 0.0165778 0.176176
43 1 0.617964 0.405124 0.264617
178 1 0.742159 0.421229 0.34204
244 1 0.456923 0.342389 0.422031
289 2 0.59082 0.372266 0.416171
50 1 0.0101345 0.465332 0.196232
74 1 0.265456 0.094724 0.485685
2 1 0.237014 0.495173 0.462438
67 1 0.0978047 0.179259 0.00929695
96 1 0.690469 0.306134 0.495397
120 1 0.205497 0.202905 0.574347
49 1 0.0449072 0.175067 0.590284
126 1 0.147386 0.129193 0.693473
234 1 0.138262 0.0482238 0.554588
313 2 0.197329 0.260609 0.692702
18 1 0.271323 0.0382155 0.629897
83 1 0.328906 0.173132 0.685472
173 1 0.412341 0.0329186 0.723407
331 2 0.358834 0.112878 0.580691
170 1 0.843849 0.286798 0.842591
192 1 0.864896 0.439081 0.890961
308 2 0.561046 0.089193 0.554183
86 1 0.683244 0.145307 0.583798
230 1 0.492218 0.147041 0.652927
239 1 0.618283 0.172301 0.745853
241 1 0.577769 0.015883 0.686544
207 1 0.978525 0.0442022 0.545659
93 1 0.0038324 0.074242 0.722315
223 1 0.833045 0.0918164 0.64867
294 2 0.883849 0.134324 0.752506
356 2 0.704109 0.148742 0.946638
283 1 0.947569 0.278256 0.512419
152 1 0.926433 0.237235 0.689408
344 2 0.72931 0.298751 0.621296
219 1 0.120117 0.317369 0.537888
12 1 0.161625 0.385388 0.665244
153 1 0.107312 0.465965 0.555402
251 1 0.555772 0.221899 0.509301
66 1 0.999184 0.382205 0.614317
1 1 0.382794 0.237829 0.536429
315 2 0.269139 0.387733 0.763749
277 1 0.394223 0.432485 0.664767
266 1 0.304348 0.312272 0.65284
167 1 0.45455 0.280153 0.69725
225 1 0.875957 0.497532 0.679333
123 1 0.951094 0.0378143 0.855027
209 1 0.577681 0.156105 0.94465
32 1 0.554081 0.500015 0.658234
104 1 0.530453 0.394375 0.559857
144 1 0.607343 0.287772 0.631187
255 1 0.67195 0.413288 0.617022
290 2 0.522309 0.388544 0.712331
288 1 0.839686 0.367197 0.595626
296 2 0.800955 0.485156 0.787964
121 1 0.767354 0.379525 0.737926
78 1 0.129469 0.34363 0.975616
24 1 0.373097 0.430741 0.507158
113 1 0.138797 0.202606 0.867363
108 1 0.118845 0.0573764 0.847178
278 1 0.239942 0.0889851 0.953785
281 1 0.259252 0.115324 0.801195
61 1 0.373972 0.0549077 0.884853
87 1 0.340501 0.209806 0.936634
22 1 0.421837 0.192974 0.814264
142 1 0.526423 0.0775584 0.829862
335 2 0.718455 0.0871047 0.725382
88 1 0.67603 0.0669882 0.84234
182 1 0.694119 0.249859 0.85848
280 1 0.774001 0.21058 0.712877
28 1 0.467531 0.28612 0.938198
106 1 0.80726 0.234823 0.979894
336 2 0.84668 0.0329142 0.537285
310 2 0.459476 0.137422 0.995303
348 2 0.0471306 0.0664429 0.950856
213 1 0.811787 0.144292 0.857028
175 1 0.974515 0.197519 0.835496
293 2 0.0625388 0.454253 0.718951
26 1 0.0637684 0.258735 0.71907
16 1 0.801338 0.225211 0.551903
118 1 0.130719 0.360567 0.823841
271 1 0.0282872 0.465099 0.915339
303 2 0.166299 0.479148 0.946891
326 2 0.228812 0.27633 0.933877
238 1 0.258917 0.39418 0.887233
150 1 0.370525 0.417074 0.970224
249 1 0.268802 0.261171 0.806796
46 1 0.407615 0.369542 0.80955
215 1 0.826436 0.00856897 0.779421
70 1 0.710822 0.363369 0.95655
54 1 0.611724 0.411902 0.790123
179 1 0.557551 0.416089 0.93467
270 1 0.545839 0.279743 0.817598
319 2 0.655913 0.289715 0.747347
252 1 0.970338 0.375462 0.796453
62 1 0.973394 0.32604 0.948378
300 2 0.602672 0.29249 0.968321
14 1 0.4887 0.0105812 0.98068
102 1 0.252197 0.499397 0.668307
282 1 0.926533 0.132288 0.967161
148 1 0.126077 0.639647 0.104354
233 1 0.215211 0.750748 0.183719
316 2 0.122924 0.753106 0.0552546
318 2 0.220089 0.974427 0.489854
226 1 0.771328 0.772703 0.33637
200 1 0.385122 0.610747 0.0780251
194 1 0.344372 0.682278 0.216189
164 1 0.442046 0.544556 0.202379
23 1 0.261946 0.566054 0.171869
141 1 0.264528 0.698765 0.0438671
199 1 0.672394 0.697736 0.201645
131 1 0.510453 0.677521 0.167388
322 2 0.267457 0.983458 0.0763582
10 1 0.620502 0.610985 0.0716643
353 2 0.645231 0.745187 0.0531303
354 2 0.749159 0.617439 0.13519
29 1 0.498511 0.502313 0.056831
135 1 0.578879 0.573491 0.264974
158 1 0.989739 0.622679 0.154002
330 2 0.0282421 0.581854 0.0305178
89 1 0.859562 0.707226 0.188557
265 1 0.87667 0.620756 0.0483131
306 2 0.560585 0.511425 0.156955
211 1 0.0564519 0.767607 0.189036
146 1 0.153663 0.890062 0.179727
36 1 0.235698 0.848402 0.0508289
39 1 0.0670145 0.873138 0.0507561
190 1 0.00946899 0.941777 0.175605
34 1 0.354568 0.638363 0.475326
138 1 0.385243 0.799022 0.0855693
151 1 0.31522 0.863223 0.21304
195 1 0.46339 0.801485 0.231344
27 1 0.454189 0.938469 0.12015
248 1 0.451422 0.949127 0.289186
269 1 0.851772 0.553295 0.204944
302 2 0.528913 0.709174 0.296508
312 2 0.503556 0.634554 0.0299699
267 1 0.549707 0.824677 0.0907899
202 1 0.702829 0.894489 0.0778935
40 1 0.597127 0.931064 0.196029
11 1 0.87642 0.806702 0.448084
143 1 0.839447 0.950017 0.0842856
116 1 0.92593 0.824089 0.118624
128 1 0.767564 0.747691 0.0772512
216 1 0.259721 0.537956 0.00932873
247 1 0.878858 0.944314 0.265991
133 1 0.756315 0.929965 0.350077
236 1 0.0213429 0.708459 0.4002
103 1 0.100764 0.542364 0.426177
197 1 0.13444 0.644942 0.263611
323 2 0.984318 0.696228 0.249618
60 1 0.172249 0.666755 0.416275
136 1 0.992003 0.574372 0.308558
79 1 0.69127 0.515922 0.169967
38 1 0.330673 0.568174 0.341323
101 1 0.480169 0.580789 0.387945
44 1 0.411118 0.708783 0.346125
272 1 0.937846 0.807155 0.286708
337 2 0.541521 0.640785 0.500818
30 1 0.739348 0.597704 0.299048
250 1 0.633059 0.653487 0.402904
72 1 0.794647 0.836164 0.208177
347 2 0.734556 0.573792 0.443881
254 1 0.758324 0.702975 0.473537
130 1 0.651008 0.834167 0.452802
324 2 0.971278 0.581861 0.420674
276 1 0.880176 0.666142 0.332953
100 1 0.848556 0.527255 0.405121
45 1 0.116337 0.804418 0.322718
346 2 0.00483633 0.849359 0.419795
264 1 0.0390223 0.945865 0.324401
169 1 0.19805 0.842175 0.440852
56 1 0.898034 0.975539 0.417939
172 1 0.479431 0.938154 0.449083
329 2 0.132612 0.537991 0.188757
147 1 0.225032 0.935434 0.326246
69 1 0.263654 0.7522 0.326244
166 1 0.350594 0.872175 0.365172
4 1 0.605322 0.961528 0.354558
228 1 0.62472 0.795882 0.302925
246 1 0.52125 0.759458 0.443923
350 2 0.525253 0.852211 0.366996
176 1 0.142185 0.997826 0.00802851
222 1 0.197294 0.505827 0.304061
220 1 0.0769174 0.930538 0.475556
243 1 0.00565038 0.714186 0.0211761
262 1 0.331376 0.787548 0.489511
159 1 0.912902 0.654106 0.495826
314 2 0.806851 0.863381 0.00516165
360 2 0.953987 0.766659 0.553938
20 1 0.067149 0.638615 0.546163
214 1 0.254467 0.630947 0.747657
110 1 0.231432 0.624241 0.577837
19 1 0.158849 0.737194 0.676133
177 1 0.942281 0.505168 0.524059
6 1 0.409706 0.592022 0.683839
332 2 0.337741 0.541306 0.561919
63 1 0.327002 0.751605 0.647032
127 1 0.467388 0.685437 0.591066
68 1 0.63553 0.57149 0.553387
193 1 0.595549 0.640072 0.682942
84 1 0.708316 0.530517 0.714806
351 2 0.713215 0.645531 0.622671
260 1 0.337181 0.958648 0.524602
165 1 0.904466 0.926593 0.947103
232 1 0.680391 0.91847 0.772635
256 1 0.799305 0.565279 0.572237
25 1 0.822914 0.731125 0.600686
184 1 0.962641 0.638204 0.661517
311 2 0.833542 0.62192 0.703064
240 1 0.807395 0.862825 0.851621
295 2 0.927793 0.98565 0.688173
98 1 0.19523 0.955269 0.732805
327 2 0.12515 0.853193 0.665833
37 1 0.21631 0.884595 0.593355
188 1 0.0822664 0.789563 0.527604
55 1 0.0556666 0.949279 0.644403
189 1 0.257618 0.825656 0.770784
94 1 0.12023 0.576956 0.684382
15 1 0.478548 0.802346 0.720317
305 2 0.470629 0.924595 0.687976
90 1 0.348711 0.904313 0.672446
125 1 0.464497 0.84803 0.570969
160 1 0.485483 0.514548 0.798149
333 2 0.710788 0.811584 0.584186
145 1 0.606482 0.855794 0.6446
114 1 0.713253 0.749741 0.704806
59 1 0.622821 0.724158 0.554847
186 1 0.716891 0.498679 0.879208
174 1 0.764833 0.984615 0.93334
91 1 0.925182 0.900594 0.565946
168 1 0.0174872 0.787198 0.67385
208 1 0.800783 0.875137 0.678498
338 2 0.307641 0.978517 0.801918
109 1 0.620892 0.982875 0.513049
343 2 0.77063 0.739839 0.819922
274 1 0.980951 0.533438 0.788432
187 1 0.0778682 0.672275 0.7948
297 2 0.957296 0.832056 0.99406
298 2 0.203399 0.722747 0.826734
217 1 0.12713 0.59244 0.944751
85 1 0.406441 0.552036 0.931058
287 1 0.174244 0.516473 0.820752
52 1 0.273583 0.638895 0.896187
95 1 0.417951 0.706172 0.95021
134 1 0.371288 0.721956 0.792711
97 1 0.468193 0.544455 0.534542
185 1 0.351701 0.935432 0.995263
31 1 0.504649 0.664727 0.815949
355 2 0.612918 0.546325 0.805976
76 1 0.575598 0.568214 0.931239
221 1 0.333954 0.510171 0.804594
73 1 0.675741 0.652778 0.81733
231 1 0.959187 0.888648 0.764727
304 2 0.818772 0.559873 0.948798
156 1 0.863845 0.752268 0.739705
75 1 0.855762 0.731311 0.939629
35 1 0.968164 0.609097 0.917832
299 2 0.937944 0.658682 0.800428
51 1 0.82447 0.604729 0.83118
163 1 0.110828 0.836231 0.805694
77 1 0.0574163 0.92944 0.902134
218 1 0.137254 0.758565 0.928672
212 1 0.222426 0.9325 0.890642
352 2 0.0756256 0.96162 0.779419
286 1 0.477083 0.852651 0.956428
261 1 0.292997 0.784424 0.907978
137 1 0.383849 0.879639 0.831479
210 1 0.987688 0.772712 0.875546
92 1 0.52625 0.926488 0.813132
275 1 0.470722 1.00071 0.584413
58 1 0.609813 0.795178 0.815447
229 1 0.572923 0.720507 0.957011
82 1 0.612236 0.930659 0.945998
242 1 0.700368 0.797664 0.947537
328 2 0.0145836 0.524395 0.623595
349 2 0.204103 0.747936 0.546311
117 1 0.726576 0.64071 0.971057
257 1 0.710494 0.982141 0.63146
227 1 0.775776 0.910571 0.506423
ITEM: TIMESTEP
120000
ITEM: NUMBER OF ATOMS
360
ITEM: BOX BOUNDS pp pp pp
0.0000000000000000e+00 6.6943295008216896e+00
0.0000000000000000e+00 6.6943295008216896e+00
0.0000000000000000e+00 6.6943295008216896e+00
ITEM: ATOMS id type xs ys zs
17 1 0.0750703 0.178603 0.157487
224 1 0.743833 0.105871 0.47673
104 1 0.522774 0.42098 0.455749
253 1 0.119875 0.0412069 0.208665
144 1 0.824997 0.353777 0.402537
196 1 0.303099 0.0352543 0.134338
132 1 0.251296 0.0628768 0.286045
342 2 0.346656 0.133759 0.200853
166 1 0.450658 0.0600213 0.189643
61 1 0.40198 0.132127 0.0483021
149 1 0.578922 0.0465811 0.0751365
279 1 0.648153 0.106832 0.195139
284 1 0.522801 0.187021 0.135152
291 2 0.542912 0.0986545 0.251892
182 1 0.75829 0.283366 0.00954314
273 1 0.695053 0.251933 0.173788
348 2 0.804711 0.228884 0.119103
190 1 0.809164 0.12307 0.18914
64 1 0.761019 0.0118496 0.0712754
45 1 0.962531 0.0627439 0.166713
237 1 0.150503 0.265558 0.0480148
62 1 0.204299 0.421779 0.0967234
78 1 0.0523107 0.403812 0.100904
198 1 0.163348 0.314841 0.221246
357 2 0.0369665 0.278327 0.0783545
204 1 0.0212662 0.328149 0.224439
49 1 0.178059 0.207392 0.503886
249 1 0.250063 0.184109 0.142358
111 1 0.363291 0.393668 0.0908736
250 1 0.504593 0.455783 0.123543
38 1 0.300719 0.371513 0.246354
7 1 0.397808 0.260035 0.153454
88 1 0.68192 0.155947 0.0611277
57 1 0.560717 0.45238 0.282957
87 1 0.485894 0.304533 0.02579
102 1 0.0914547 0.328385 0.480617
296 2 0.617469 0.282979 0.0719533
213 1 0.557677 0.330892 0.18294
170 1 0.899907 0.341203 0.0249231
233 1 0.686276 0.412198 0.433749
100 1 0.959107 0.449212 0.454718
107 1 0.923717 0.224305 0.124285
235 1 0.77808 0.371913 0.124638
278 1 0.303469 0.275405 0.0115264
289 2 0.93098 0.362041 0.142941
206 1 0.894958 0.411832 0.276381
201 1 0.83337 0.135487 0.0323524
341 2 0.574642 0.331577 0.324043
41 1 0.127197 0.181705 0.315
220 1 0.996677 0.0595111 0.365357
13 1 0.0476193 0.175044 0.441307
2 1 0.275272 0.0820206 0.449948
301 2 -0.00325007 0.482092 0.195943
258 1 0.837784 0.268491 0.247243
181 1 0.300223 0.214801 0.293996
42 1 0.452694 0.195148 0.274011
267 1 0.392737 0.06363 0.330962
167 1 0.345993 0.233712 0.456142
325 2 0.13382 0.088892 0.480018
154 1 0.597832 0.212272 0.285568
157 1 0.536265 0.0802097 0.375575
21 1 0.746044 0.152246 0.317395
148 1 0.257316 0.492099 0.330345
180 1 0.678894 0.244161 0.417921
50 1 0.972365 0.303672 0.378001
96 1 0.852792 0.199652 0.410372
53 1 0.960685 0.170412 0.276386
139 1 0.835887 0.0183502 0.383095
33 1 0.0842174 0.0416139 0.0674733
205 1 0.709477 0.359633 0.287167
340 2 0.08828 0.298057 0.328477
124 1 0.110952 0.431057 0.352414
3 1 0.235197 0.321584 0.386805
140 1 0.442463 0.341416 0.326515
8 1 0.413849 0.466043 0.237416
162 1 0.346679 0.424201 0.432839
103 1 0.184307 0.471325 0.473019
99 1 0.510021 0.234457 0.397963
155 1 0.225455 0.139148 0.00886798
71 1 0.659899 0.462477 0.152577
122 1 0.129983 0.0229555 0.373168
203 1 0.637675 0.400837 0.0252503
324 2 0.788126 0.48681 0.234604
302 2 0.768915 0.496116 0.0814801
178 1 0.136623 0.488238 0.219262
315 2 0.548565 0.179994 0.0117913
282 1 0.00850717 0.156535 0.0105945
317 2 0.604364 0.50061 0.390269
65 1 0.895387 0.481925 0.11861
56 1 0.675684 0.0216618 0.35958
5 1 0.437971 0.0996021 0.497031
73 1 0.785694 0.0486004 0.728414
318 2 0.174348 0.229421 0.634234
281 1 0.0849065 0.0567452 0.696828
234 1 0.0659257 0.178801 0.591416
1 1 0.20172 0.0903222 0.601955
173 1 0.485548 0.0248033 0.788243
126 1 0.0981523 0.235965 0.748739
266 1 0.316951 0.195064 0.596514
245 1 0.469362 0.216634 0.592898
336 2 0.381994 0.082013 0.613132
221 1 0.396772 0.150783 0.749408
308 2 0.500404 0.242919 0.727581
356 2 0.114602 0.115625 0.962793
129 1 0.783251 0.435735 0.974562
86 1 0.529093 0.0942713 0.651361
109 1 0.680011 0.104096 0.633677
24 1 0.467314 0.498134 0.58219
263 1 0.0237986 0.0217571 0.916364
295 2 0.790322 0.0628338 0.57933
207 1 0.95312 0.24944 0.68789
355 2 0.535052 0.355414 0.921397
251 1 0.825682 0.18341 0.616377
98 1 0.94717 0.0930337 0.642812
192 1 0.943367 0.48653 0.965294
110 1 0.158601 0.469844 0.720087
191 1 0.12224 0.338693 0.633167
222 1 0.0744894 0.471064 0.581137
277 1 0.25392 0.318943 0.698908
44 1 0.247078 0.337447 0.54441
152 1 0.0078019 0.375229 0.737686
331 2 0.207442 0.0479489 0.724669
19 1 0.369597 0.436437 0.682863
134 1 0.411235 0.320571 0.779057
349 2 0.210706 0.444474 0.619375
344 2 0.369749 0.309423 0.644827
46 1 0.612047 0.244488 0.656426
238 1 0.623692 0.261442 0.93864
28 1 0.513557 0.368348 0.665129
22 1 0.563637 0.316188 0.809744
288 1 0.81734 0.320181 0.732997
179 1 0.681598 0.374113 0.697162
120 1 0.935673 0.253849 0.5301
300 2 0.72822 0.231827 0.692334
84 1 0.760731 0.321531 0.569632
159 1 0.92842 0.398775 0.603769
175 1 0.236296 0.168211 0.731985
105 1 0.48519 0.459637 0.792441
67 1 0.153929 0.228479 0.890885
77 1 0.0184315 0.16932 0.858369
39 1 0.156293 0.0818347 0.850829
18 1 0.038187 0.0311681 0.53346
137 1 0.491716 0.0869196 0.937168
212 1 0.322517 0.120833 0.905053
185 1 0.469564 0.228446 0.896899
26 1 0.306521 0.263574 0.861056
171 1 0.591756 0.146718 0.516843
292 2 0.691883 0.203201 0.555243
280 1 0.635502 0.0217219 0.766949
239 1 0.740301 0.336361 0.868855
244 1 0.564064 0.160938 0.789949
270 1 0.716061 0.195576 0.807506
113 1 0.639799 0.0950396 0.907457
209 1 0.789147 0.0764406 0.884165
106 1 0.653845 0.471053 0.87828
123 1 0.865745 0.168294 0.775585
338 2 1.00473 0.146722 0.744621
70 1 0.803271 0.48245 0.696347
215 1 0.955008 -0.00207451 0.758647
319 2 0.724514 0.190043 0.938739
255 1 0.806573 0.473447 0.530324
93 1 0.882985 0.226367 0.924438
121 1 0.895837 0.395769 0.858245
313 2 0.953474 0.294656 0.826315
256 1 0.0332228 0.30435 0.942987
135 1 0.592417 0.313221 0.531094
252 1 0.135617 0.370551 0.836671
219 1 0.236437 0.397352 0.94239
95 1 0.513015 0.480255 0.939225
161 1 0.297432 0.414249 0.810075
83 1 0.389049 0.370413 0.936834
322 2 0.226735 0.0359727 0.945308
359 2 0.911375 0.104834 0.908891
81 1 0.34135 0.0163128 0.706465