ITEM: TIMESTEP
0
ITEM: NUMBER OF ATOMS
360
ITEM: BOX BOUNDS pp pp pp
0.0000000000000000e+00 6.6943295008216896e+00
0.0000000000000000e+00 6.6943295008216896e+00
0.0000000000000000e+00 6.6943295008216896e+00
ITEM: ATOMS id type xs ys zs
1 1 0 0 0
2 1 0.111572 0.111572 0
3 1 0.111572 0 0.111572
4 1 0 0.111572 0.111572
5 1 0.223144 0 0
8 1 0.223144 0.111572 0.111572
19 1 0 0.223144 0
21 1 0.111572 0.223144 0.111572
23 1 0.223144 0.223144 0
46 1 0 0 0.223144
47 1 0.111572 0.111572 0.223144
50 1 0.223144 0 0.223144
64 1 0 0.223144 0.223144
68 1 0.223144 0.223144 0.223144
6 1 0.334716 0.111572 0
7 1 0.334716 0 0.111572
9 1 0.446289 0 0
12 1 0.446289 0.111572 0.111572
25 1 0.334716 0.223144 0.111572
27 1 0.446289 0.223144 0
51 1 0.334716 0.111572 0.223144
54 1 0.446289 0 0.223144
72 1 0.446289 0.223144 0.223144
10 1 0.557861 0.111572 0
11 1 0.557861 0 0.111572
13 1 0.669433 0 0
16 1 0.669433 0.111572 0.111572
29 1 0.557861 0.223144 0.111572
31 1 0.669433 0.223144 0
55 1 0.557861 0.111572 0.223144
58 1 0.669433 0 0.223144
76 1 0.669433 0.223144 0.223144
14 1 0.781005 0.111572 0
15 1 0.781005 0 0.111572
17 1 0.892577 0 0
18 1 0.892577 0.111572 0.111572
33 1 0.781005 0.223144 0.111572
35 1 0.892577 0.223144 0
59 1 0.781005 0.111572 0.223144
62 1 0.892577 0 0.223144
80 1 0.892577 0.223144 0.223144
20 1 0.111572 0.334716 0
22 1 0 0.334716 0.111572
26 1 0.223144 0.334716 0.111572
37 1 0 0.446289 0
38 1 0.111572 0.446289 0.111572
39 1 0.223144 0.446289 0
65 1 0.111572 0.334716 0.223144
82 1 0 0.446289 0.223144
84 1 0.223144 0.446289 0.223144
24 1 0.334716 0.334716 0
30 1 0.446289 0.334716 0.111572
40 1 0.334716 0.446289 0.111572
41 1 0.446289 0.446289 0
69 1 0.334716 0.334716 0.223144
86 1 0.446289 0.446289 0.223144
28 1 0.557861 0.334716 0
34 1 0.669433 0.334716 0.111572
42 1 0.557861 0.446289 0.111572
43 1 0.669433 0.446289 0
73 1 0.557861 0.334716 0.223144
88 1 0.669433 0.446289 0.223144
32 1 0.781005 0.334716 0
36 1 0.892577 0.334716 0.111572
44 1 0.781005 0.446289 0.111572
45 1 0.892577 0.446289 0
77 1 0.781005 0.334716 0.223144
90 1 0.892577 0.446289 0.223144
48 1 0.111572 0 0.334716
49 1 0 0.111572 0.334716
53 1 0.223144 0.111572 0.334716
66 1 0.111572 0.223144 0.334716
91 1 0 0 0.446289
92 1 0.111572 0.111572 0.446289
93 1 0.223144 0 0.446289
100 1 0 0.223144 0.446289
102 1 0.223144 0.223144 0.446289
52 1 0.334716 0 0.334716
57 1 0.446289 0.111572 0.334716
70 1 0.334716 0.223144 0.334716
94 1 0.334716 0.111572 0.446289
95 1 0.446289 0 0.446289
104 1 0.446289 0.223144 0.446289
56 1 0.557861 0 0.334716
61 1 0.669433 0.111572 0.334716
74 1 0.557861 0.223144 0.334716
96 1 0.557861 0.111572 0.446289
97 1 0.669433 0 0.446289
106 1 0.669433 0.223144 0.446289
60 1 0.781005 0 0.334716
63 1 0.892577 0.111572 0.334716
78 1 0.781005 0.223144 0.334716
98 1 0.781005 0.111572 0.446289
99 1 0.892577 0 0.446289
108 1 0.892577 0.223144 0.446289
67 1 0 0.334716 0.334716
71 1 0.223144 0.334716 0.334716
83 1 0.111572 0.446289 0.334716
101 1 0.111572 0.334716 0.446289
109 1 0 0.446289 0.446289
110 1 0.223144 0.446289 0.446289
75 1 0.446289 0.334716 0.334716
85 1 0.334716 0.446289 0.334716
103 1 0.334716 0.334716 0.446289
111 1 0.446289 0.446289 0.446289
79 1 0.669433 0.334716 0.334716
87 1 0.557861 0.446289 0.334716
105 1 0.557861 0.334716 0.446289
112 1 0.669433 0.446289 0.446289
81 1 0.892577 0.334716 0.334716
89 1 0.781005 0.446289 0.334716
107 1 0.781005 0.334716 0.446289
113 1 0.892577 0.446289 0.446289
114 1 0.111572 0 0.557861
115 1 0 0.111572 0.557861
117 1 0.223144 0.111572 0.557861
123 1 0.111572 0.223144 0.557861
136 1 0 0 0.669433
137 1 0.111572 0.111572 0.669433
140 1 0.223144 0 0.669433
154 1 0 0.223144 0.669433
158 1 0.223144 0.223144 0.669433
116 1 0.334716 0 0.557861
119 1 0.446289 0.111572 0.557861
125 1 0.334716 0.223144 0.557861
141 1 0.334716 0.111572 0.669433
144 1 0.446289 0 0.669433
162 1 0.446289 0.223144 0.669433
118 1 0.557861 0 0.557861
121 1 0.669433 0.111572 0.557861
127 1 0.557861 0.223144 0.557861
145 1 0.557861 0.111572 0.669433
148 1 0.669433 0 0.669433
166 1 0.669433 0.223144 0.669433
120 1 0.781005 0 0.557861
122 1 0.892577 0.111572 0.557861
129 1 0.781005 0.223144 0.557861
149 1 0.781005 0.111572 0.669433
152 1 0.892577 0 0.669433
170 1 0.892577 0.223144 0.669433
124 1 0 0.334716 0.557861
126 1 0.223144 0.334716 0.557861
132 1 0.111572 0.446289 0.557861
155 1 0.111572 0.334716 0.669433
172 1 0 0.446289 0.669433
174 1 0.223144 0.446289 0.669433
128 1 0.446289 0.334716 0.557861
133 1 0.334716 0.446289 0.557861
159 1 0.334716 0.334716 0.669433
176 1 0.446289 0.446289 0.669433
130 1 0.669433 0.334716 0.557861
134 1 0.557861 0.446289 0.557861
163 1 0.557861 0.334716 0.669433
178 1 0.669433 0.446289 0.669433
131 1 0.892577 0.334716 0.557861
135 1 0.781005 0.446289 0.557861
167 1 0.781005 0.334716 0.669433
180 1 0.892577 0.446289 0.669433
138 1 0.111572 0 0.781005
139 1 0 0.111572 0.781005
143 1 0.223144 0.111572 0.781005
156 1 0.111572 0.223144 0.781005
181 1 0 0 0.892577
182 1 0.111572 0.111572 0.892577
183 1 0.223144 0 0.892577
190 1 0 0.223144 0.892577
192 1 0.223144 0.223144 0.892577
142 1 0.334716 0 0.781005
147 1 0.446289 0.111572 0.781005
160 1 0.334716 0.223144 0.781005
184 1 0.334716 0.111572 0.892577
185 1 0.446289 0 0.892577
194 1 0.446289 0.223144 0.892577
146 1 0.557861 0 0.781005
151 1 0.669433 0.111572 0.781005
164 1 0.557861 0.223144 0.781005
186 1 0.557861 0.111572 0.892577
187 1 0.669433 0 0.892577
196 1 0.669433 0.223144 0.892577
150 1 0.781005 0 0.781005
153 1 0.892577 0.111572 0.781005
168 1 0.781005 0.223144 0.781005
188 1 0.781005 0.111572 0.892577
189 1 0.892577 0 0.892577
198 1 0.892577 0.223144 0.892577
157 1 0 0.334716 0.781005
161 1 0.223144 0.334716 0.781005
173 1 0.111572 0.446289 0.781005
191 1 0.111572 0.334716 0.892577
199 1 0 0.446289 0.892577
200 1 0.223144 0.446289 0.892577
165 1 0.446289 0.334716 0.781005
175 1 0.334716 0.446289 0.781005
193 1 0.334716 0.334716 0.892577
201 1 0.446289 0.446289 0.892577
169 1 0.669433 0.334716 0.781005
177 1 0.557861 0.446289 0.781005
195 1 0.557861 0.334716 0.892577
202 1 0.669433 0.446289 0.892577
171 1 0.892577 0.334716 0.781005
179 1 0.781005 0.446289 0.781005
197 1 0.781005 0.334716 0.892577
203 1 0.892577 0.446289 0.892577
204 1 0.111572 0.557861 0
205 1 0 0.557861 0.111572
207 1 0.223144 0.557861 0.111572
213 1 0 0.669433 0
215 1 0.111572 0.669433 0.111572
217 1 0.223144 0.669433 0
240 1 0.111572 0.557861 0.223144
249 1 0 0.669433 0.223144
253 1 0.223144 0.669433 0.223144
206 1 0.334716 0.557861 0
209 1 0.446289 0.557861 0.111572
219 1 0.334716 0.669433 0.111572
221 1 0.446289 0.669433 0
242 1 0.334716 0.557861 0.223144
257 1 0.446289 0.669433 0.223144
208 1 0.557861 0.557861 0
211 1 0.669433 0.557861 0.111572
223 1 0.557861 0.669433 0.111572
225 1 0.669433 0.669433 0
244 1 0.557861 0.557861 0.223144
261 1 0.669433 0.669433 0.223144
210 1 0.781005 0.557861 0
212 1 0.892577 0.557861 0.111572
227 1 0.781005 0.669433 0.111572
229 1 0.892577 0.669433 0
246 1 0.781005 0.557861 0.223144
265 1 0.892577 0.669433 0.223144
214 1 0.111572 0.781005 0
216 1 0 0.781005 0.111572
220 1 0.223144 0.781005 0.111572
231 1 0 0.892577 0
232 1 0.111572 0.892577 0.111572
233 1 0.223144 0.892577 0
250 1 0.111572 0.781005 0.223144
267 1 0 0.892577 0.223144
269 1 0.223144 0.892577 0.223144
218 1 0.334716 0.781005 0
224 1 0.446289 0.781005 0.111572
234 1 0.334716 0.892577 0.111572
235 1 0.446289 0.892577 0
254 1 0.334716 0.781005 0.223144
271 1 0.446289 0.892577 0.223144
222 1 0.557861 0.781005 0
228 1 0.669433 0.781005 0.111572
236 1 0.557861 0.892577 0.111572
237 1 0.669433 0.892577 0
258 1 0.557861 0.781005 0.223144
273 1 0.669433 0.892577 0.223144
226 1 0.781005 0.781005 0
230 1 0.892577 0.781005 0.111572
238 1 0.781005 0.892577 0.111572
239 1 0.892577 0.892577 0
262 1 0.781005 0.781005 0.223144
275 1 0.892577 0.892577 0.223144
241 1 0 0.557861 0.334716
243 1 0.223144 0.557861 0.334716
251 1 0.111572 0.669433 0.334716
276 1 0.111572 0.557861 0.446289
280 1 0 0.669433 0.446289
282 1 0.223144 0.669433 0.446289
245 1 0.446289 0.557861 0.334716
255 1 0.334716 0.669433 0.334716
277 1 0.334716 0.557861 0.446289
284 1 0.446289 0.669433 0.446289
247 1 0.669433 0.557861 0.334716
259 1 0.557861 0.669433 0.334716
278 1 0.557861 0.557861 0.446289
286 1 0.669433 0.669433 0.446289
248 1 0.892577 0.557861 0.334716
263 1 0.781005 0.669433 0.334716
279 1 0.781005 0.557861 0.446289
288 1 0.892577 0.669433 0.446289
252 1 0 0.781005 0.334716
256 1 0.223144 0.781005 0.334716
268 1 0.111572 0.892577 0.334716
281 1 0.111572 0.781005 0.446289
289 2 0 0.892577 0.446289
290 2 0.223144 0.892577 0.446289
260 1 0.446289 0.781005 0.334716
270 1 0.334716 0.892577 0.334716
283 1 0.334716 0.781005 0.446289
291 2 0.446289 0.892577 0.446289
264 1 0.669433 0.781005 0.334716
272 1 0.557861 0.892577 0.334716
285 1 0.557861 0.781005 0.446289
292 2 0.669433 0.892577 0.446289
266 1 0.892577 0.781005 0.334716
274 1 0.781005 0.892577 0.334716
287 1 0.781005 0.781005 0.446289
293 2 0.892577 0.892577 0.446289
294 2 0 0.557861 0.557861
295 2 0.223144 0.557861 0.557861
299 2 0.111572 0.669433 0.557861
312 2 0.111572 0.557861 0.669433
321 2 0 0.669433 0.669433
325 2 0.223144 0.669433 0.669433
296 2 0.446289 0.557861 0.557861
301 2 0.334716 0.669433 0.557861
314 2 0.334716 0.557861 0.669433
329 2 0.446289 0.669433 0.669433
297 2 0.669433 0.557861 0.557861
303 2 0.557861 0.669433 0.557861
316 2 0.557861 0.557861 0.669433
333 2 0.669433 0.669433 0.669433
298 2 0.892577 0.557861 0.557861
305 2 0.781005 0.669433 0.557861
318 2 0.781005 0.557861 0.669433
337 2 0.892577 0.669433 0.669433
300 2 0 0.781005 0.557861
302 2 0.223144 0.781005 0.557861
308 2 0.111572 0.892577 0.557861
322 2 0.111572 0.781005 0.669433
339 2 0 0.892577 0.669433
341 2 0.223144 0.892577 0.669433
304 2 0.446289 0.781005 0.557861
309 2 0.334716 0.892577 0.557861
326 2 0.334716 0.781005 0.669433
343 2 0.446289 0.892577 0.669433
306 2 0.669433 0.781005 0.557861
310 2 0.557861 0.892577 0.557861
330 2 0.557861 0.781005 0.669433
345 2 0.669433 0.892577 0.669433
307 2 0.892577 0.781005 0.557861
311 2 0.781005 0.892577 0.557861
334 2 0.781005 0.781005 0.669433
347 2 0.892577 0.892577 0.669433
313 2 0 0.557861 0.781005
315 2 0.223144 0.557861 0.781005
323 2 0.111572 0.669433 0.781005
348 2 0.111572 0.557861 0.892577
352 2 0 0.669433 0.892577
354 2 0.223144 0.669433 0.892577
317 2 0.446289 0.557861 0.781005
327 2 0.334716 0.669433 0.781005
349 2 0.334716 0.557861 0.892577
356 2 0.446289 0.669433 0.892577
319 2 0.669433 0.557861 0.781005
331 2 0.557861 0.669433 0.781005
350 2 0.557861 0.557861 0.892577
358 2 0.669433 0.669433 0.892577
320 2 0.892577 0.557861 0.781005
335 2 0.781005 0.669433 0.781005
351 2 0.781005 0.557861 0.892577
360 2 0.892577 0.669433 0.892577
324 2 0 0.781005 0.781005
328 2 0.223144 0.781005 0.781005
340 2 0.111572 0.892577 0.781005
353 2 0.111572 0.781005 0.892577
332 2 0.446289 0.781005 0.781005
342 2 0.334716 0.892577 0.781005
355 2 0.334716 0.781005 0.892577
336 2 0.669433 0.781005 0.781005
344 2 0.557861 0.892577 0.781005
357 2 0.557861 0.781005 0.892577
338 2 0.892577 0.781005 0.781005
346 2 0.781005 0.892577 0.781005
359 2 0.781005 0.781005 0.892577
ITEM: TIMESTEP
10000
ITEM: NUMBER OF ATOMS
360
ITEM: BOX BOUNDS pp pp pp
0.0000000000000000e+00 6.6943295008216896e+00
0.0000000000000000e+00 6.6943295008216896e+00
0.0000000000000000e+00 6.6943295008216896e+00
ITEM: ATOMS id type xs ys zs
93 1 0.168084 0.22671 0.218767
18 1 0.078698 0.137081 0.181294
303 2 0.246966 0.166076 0.230891
160 1 0.273291 0.210752 0.0898272
332 2 0.477518 0.0919428 0.135557
53 1 0.406494 0.247618 0.0830569
210 1 0.450172 0.212206 0.242593
38 1 0.360556 0.114183 0.17071
213 1 0.269434 0.01252 0.165773
230 1 0.543167 0.222033 0.135184
247 1 0.584739 0.0677269 0.0414095
342 2 0.618448 0.064909 0.22873
61 1 0.747511 0.0490404 0.0904782
251 1 0.679901 0.188837 0.10124
164 1 0.99679 0.208825 0.22514
37 1 0.815513 0.244869 0.11919
142 1 0.898581 0.1281 0.176896
182 1 0.870039 0.000319357 0.0194011
347 2 0.843336 0.15886 0.0330676
265 1 0.966847 0.187211 0.0890769
314 2 0.165175 0.358861 0.228003
227 1 0.0830253 0.397257 0.00373962
120 1 0.1936 0.350397 0.120608
104 1 0.202521 0.465851 0.21593
98 1 0.0706904 0.375555 0.225523
57 1 0.068929 0.285787 0.13037
274 1 0.0887958 0.480619 0.113081
313 2 0.181193 0.452905 0.00716952
112 1 0.312028 0.267896 0.225439
127 1 0.337131 0.444334 0.203329
8 1 0.428136 0.466744 0.107396
72 1 0.256901 0.32004 0.00752231
92 1 0.521687 0.391781 0.0627281
75 1 0.593685 0.344237 0.174917
188 1 0.727712 0.394527 0.0823913
192 1 0.508963 0.436646 0.241224
7 1 0.701389 0.273822 0.18567
290 2 0.888969 0.415806 0.113623
32 1 0.96264 0.350664 0.0232111
67 1 0.928851 0.311381 0.2049
266 1 0.816948 0.379732 0.180738
170 1 0.949974 0.476245 0.194758
275 1 0.129879 0.15729 0.466193
50 1 0.124841 0.0285346 0.403649
187 1 0.113707 0.0375687 0.271684
43 1 0.0264242 0.143608 0.406333
329 2 0.248262 0.0252001 0.411065
3 1 0.356531 0.198586 0.355499
270 1 0.406572 0.0844974 0.292357
184 1 0.381189 0.0579413 0.460973
201 1 0.262394 0.199983 0.43099
245 1 0.428885 0.235521 0.459684
219 1 0.528463 0.0990945 0.297397
271 1 0.555508 0.0819967 0.448566
107 1 0.714961 0.241333 0.429441
316 2 0.517158 0.165252 0.381136
56 1 0.671162 0.0906246 0.361933
102 1 0.645777 0.161809 0.261502
97 1 0.988609 0.0105812 0.373955
258 1 0.914274 0.217476 0.35
134 1 0.903681 0.0479665 0.294087
248 1 0.846009 0.133303 0.436272
259 1 0.800709 0.187191 0.26506
162 1 0.0148501 0.478611 0.355918
91 1 0.164186 0.29533 0.478549
301 2 0.174972 0.379873 0.386674
236 1 0.206278 0.268151 0.32956
167 1 0.0159279 0.344705 0.355282
337 2 0.140091 0.454091 0.444556
13 1 0.28143 0.486046 0.459127
47 1 0.260639 0.403753 0.314321
94 1 0.333279 0.359465 0.418361
288 1 0.446518 0.330516 0.315364
286 1 0.387437 0.450589 0.32977
129 1 0.620209 0.282372 0.336903
161 1 0.555719 0.363371 0.462495
58 1 0.62513 0.426712 0.292319
157 1 0.533905 0.466153 0.403708
196 1 0.705321 0.391771 0.44025
123 1 0.761561 0.41404 0.307747
239 1 0.869621 0.486761 0.310442
148 1 0.807883 0.299412 0.343484
40 1 0.891539 0.360552 0.398401
143 1 0.116519 0.244944 0.622368
330 2 0.202139 0.207942 0.710106
335 2 0.0873584 0.0925945 0.643944
23 1 0.172489 0.137197 0.596832
122 1 0.0634509 0.0343757 0.522404
17 1 0.218307 0.0341198 0.665001
253 1 0.303496 0.199933 0.544493
318 2 0.415821 0.095758 0.714177
42 1 0.454857 0.0242843 0.578316
344 2 0.389149 0.135029 0.571529
103 1 0.319953 0.159613 0.691738
85 1 0.490602 0.133366 0.635371
117 1 0.631955 0.173527 0.704136
349 2 0.737454 0.15247 0.542232
5 1 0.524211 0.179408 0.50994
222 1 0.6364 0.169938 0.571028
52 1 0.746413 0.00765654 0.688333
146 1 0.602749 0.0598822 0.622529
176 1 0.919831 0.226309 0.523537
172 1 0.878781 0.0528169 0.693789
357 2 0.841352 0.0347517 0.525561
339 2 0.899036 0.158536 0.645553
280 1 0.765985 0.179174 0.676373
118 1 0.995977 0.201482 0.712292
256 1 0.833378 0.119662 0.580414
293 2 0.974008 0.0683017 0.596085
226 1 0.0285803 0.287137 0.54451
111 1 0.0352531 0.413434 0.631971
155 1 0.155699 0.413177 0.662141
168 1 0.410026 0.251908 0.65924
278 1 0.447661 0.414368 0.652954
223 1 0.258359 0.280616 0.634858
90 1 0.365894 0.322567 0.556637
156 1 0.272337 0.408494 0.590446
10 1 0.324576 0.393486 0.712522
124 1 0.562019 0.361299 0.735444
128 1 0.642574 0.42538 0.591991
100 1 0.509316 0.300019 0.586137
240 1 0.678286 0.291754 0.701862
310 2 0.714337 0.288743 0.570898
89 1 0.815353 0.311572 0.687129
298 2 0.751831 0.410038 0.684539
300 2 0.853074 0.39009 0.533656
264 1 0.773343 0.484333 0.577966
323 2 0.876402 0.427536 0.704645
63 1 0.803958 0.287023 0.538505
132 1 0.984962 0.458502 0.503709
294 2 0.0521681 0.0376192 0.811727
76 1 0.127902 0.0886226 0.963409
151 1 0.246325 0.114845 0.784571
33 1 0.105702 0.227598 0.97408
273 1 0.0650374 0.162661 0.827981
334 2 0.337305 0.245112 0.757414
166 1 0.381108 0.124927 0.843975
60 1 0.262858 0.100828 0.969078
267 1 0.260986 0.222284 0.900844
224 1 0.473213 0.0660687 0.948306
296 2 0.36822 0.179647 0.961214
147 1 0.317471 0.000505222 0.835864
214 1 0.536363 0.132328 0.817924
150 1 0.668073 0.15497 0.966697
336 2 0.615779 0.0248848 0.858627
234 1 0.507384 0.195321 0.995447
45 1 0.864404 0.19897 0.788178
260 1 0.868842 0.0411368 0.90194
153 1 0.759155 0.117688 0.81537
345 2 0.982595 0.126973 0.906342
252 1 0.868926 0.160476 0.92109
16 1 0.99112 0.0202524 0.898162
281 1 0.185809 0.252607 0.809422
355 2 0.0685034 0.3372 0.867353
79 1 0.0754756 0.346975 0.762557
144 1 0.171185 0.426925 0.819405
141 1 0.443501 0.441921 0.948217
215 1 0.446754 0.47359 0.809472
246 1 0.287988 0.462243 0.998695
195 1 0.401782 0.284435 0.955725
359 2 0.289941 0.431006 0.861569
19 1 0.446401 0.258132 0.838497
74 1 0.719283 0.490432 0.976741
287 1 0.601722 0.461034 0.983881
145 1 0.597662 0.272382 0.848992
194 1 0.648858 0.396278 0.806931
352 2 0.723953 0.387179 0.899948
130 1 0.614422 0.298888 0.9886
115 1 0.750637 0.2958 0.813689
356 2 0.975577 0.401004 0.864165
186 1 0.935068 0.318501 0.762721
11 1 0.981859 0.456937 0.770936
326 2 0.757999 0.456516 0.795036
15 1 0.962832 0.259004 0.888918
309 2 0.833345 0.403314 0.996663
121 1 0.764401 0.260846 0.989257
199 1 0.19606 0.652938 0.0287451
255 1 0.199304 0.646326 0.197139
1 1 0.0600522 0.706775 0.224464
202 1 0.110099 0.575706 0.23405
360 2 0.0704387 0.622399 0.102641
225 1 0.306665 0.738546 0.18594
88 1 0.251182 0.549577 0.0889092
27 1 0.426421 0.558621 0.241281
338 2 0.259457 0.670247 0.102472
133 1 0.381013 0.585983 0.0766642
21 1 0.508303 0.578936 0.102075
321 2 0.583921 0.640133 0.081381
254 1 0.69896 0.542728 0.0882968
26 1 0.706962 0.665506 0.151813
163 1 0.612493 0.584669 0.191965
109 1 0.532579 0.68869 0.226046
36 1 0.517352 0.737204 0.0893243
169 1 0.873352 0.669545 0.244876
30 1 0.831481 0.701169 0.117895
315 2 0.768755 0.644581 0.0527076
179 1 0.956513 0.553841 0.0543697
77 1 0.827401 0.576554 0.142104
34 1 0.974548 0.716677 0.102428
65 1 0.244281 0.863806 0.170972
341 2 0.0999725 0.833492 0.222754
152 1 0.139167 0.75601 0.138969
39 1 0.0620052 0.985435 0.0481441
113 1 0.0667735 0.847622 0.0722813
340 2 0.123928 0.939852 0.141566
308 2 0.349947 0.900085 0.190635
211 1 0.483295 0.980099 0.132731
231 1 0.436865 0.794859 0.209579
137 1 0.345038 0.969125 0.0215118
319 2 0.303296 0.884895 0.0693247
244 1 0.417935 0.790142 0.0478679
312 2 0.666019 0.955156 0.0551949
324 2 0.550183 0.93173 0.219064
62 1 0.645234 0.777887 0.121194
203 1 0.522268 0.864314 0.142254
106 1 0.655304 0.974298 0.181351
358 2 0.644768 0.850999 0.201852
257 1 0.538301 0.942841 0.00897803
185 1 0.952645 0.80166 0.222514
237 1 0.879659 0.868696 0.123248
317 2 0.781077 0.874755 0.0510814
70 1 0.78404 0.81666 0.188224
24 1 0.230062 0.686531 0.370968
229 1 0.224546 0.539875 0.341471
12 1 0.126161 0.611897 0.368855
249 1 0.398355 0.681521 0.278578
235 1 0.325624 0.670897 0.477102
71 1 0.387376 0.595928 0.373466
302 2 0.408767 0.605122 0.496399
327 2 0.292586 0.645459 0.263391
87 1 0.671383 0.698732 0.33373
101 1 0.69334 0.695191 0.499995
282 1 0.713852 0.534901 0.435505
292 2 0.74221 0.74501 0.26022
49 1 0.533621 0.710286 0.48233
325 2 0.500837 0.732904 0.332902
268 1 0.571836 0.584108 0.475263
306 2 0.56671 0.654481 0.373021
206 1 0.531319 0.57263 0.321895
242 1 0.914753 0.552362 0.432376
283 1 0.918035 0.713409 0.353149
354 2 0.977258 0.706513 0.474064
82 1 0.806394 0.628557 0.375811
136 1 0.994188 0.595709 0.306606
78 1 0.760157 0.546926 0.264979
216 1 0.0351414 0.899145 0.279208
114 1 0.102037 0.77172 0.359892
135 1 0.0639061 0.895094 0.414547
250 1 0.198547 0.787397 0.266455
348 2 0.192014 0.943495 0.355101
276 1 0.294961 0.907266 0.355101
284 1 0.423443 0.939272 0.268298
14 1 0.381264 0.909748 0.486282
180 1 0.252224 0.830047 0.470137
291 2 0.295334 0.807896 0.29997
221 1 0.449543 0.991134 0.37776
66 1 0.511574 0.930315 0.468888
6 1 0.606632 0.977402 0.349296
99 1 0.681112 0.892496 0.28916
54 1 0.63216 0.899641 0.442775
198 1 0.73568 0.994947 0.481395
295 2 0.678886 0.805803 0.375276
80 1 0.517796 0.862682 0.334848
55 1 0.787983 0.763917 0.445774
138 1 0.903351 0.866946 0.327474
154 1 0.768633 0.894447 0.402778
299 2 0.806031 0.792298 0.342025
181 1 0.872981 0.963333 0.431947
81 1 0.799955 0.9904 0.261885
86 1 0.948495 0.838582 0.464473
289 2 0.000847541 0.609374 0.692044
269 1 0.220311 0.539145 0.679679
200 1 0.10388 0.654536 0.641569
311 2 0.0702969 0.540711 0.585023
64 1 0.237309 0.679302 0.718102
48 1 0.19021 0.531457 0.542967
165 1 0.0468207 0.605467 0.500946
217 1 0.150085 0.736972 0.500911
51 1 0.417098 0.733304 0.737224
41 1 0.324203 0.574721 0.605015
178 1 0.407769 0.688509 0.605687
110 1 0.432882 0.569156 0.681055
149 1 0.418566 0.502271 0.519827
177 1 0.60312 0.610981 0.744696
350 2 0.573143 0.510899 0.58787
44 1 0.569836 0.730247 0.737644
4 1 0.565038 0.694118 0.60184
220 1 0.700093 0.712854 0.63918
119 1 0.675389 0.533837 0.659338
174 1 0.912689 0.634346 0.552005
189 1 0.787723 0.550096 0.742022
159 1 0.853522 0.73477 0.693409
20 1 0.910599 0.532957 0.656993
29 1 0.796489 0.610295 0.621502
193 1 0.219294 0.968127 0.533866
126 1 0.0511441 0.751099 0.732647
305 2 0.163926 0.779834 0.612181
96 1 0.0286179 0.902297 0.616025
191 1 0.22991 0.876973 0.662854
190 1 0.0761799 0.94863 0.730881
307 2 0.131236 0.850721 0.502912
68 1 0.483464 0.978822 0.721391
25 1 0.27955 0.760392 0.587055
125 1 0.414145 0.853441 0.61084
95 1 0.376955 0.896377 0.746984
353 2 0.325991 0.80636 0.705847
73 1 0.350677 0.979971 0.636813
207 1 0.453265 0.801126 0.506472
197 1 0.549969 0.851764 0.627343
343 2 0.599468 0.977205 0.70835
333 2 0.632569 0.995516 0.535986
233 1 0.678665 0.856524 0.564219
297 2 0.648758 0.873954 0.69726
9 1 0.976326 0.763548 0.564979
351 2 0.939349 0.982529 0.513105
116 1 0.855399 0.853493 0.552706
173 1 0.120024 0.55188 0.96996
140 1 0.0777803 0.548214 0.788903
243 1 0.0641623 0.743381 0.853511
331 2 0.137644 0.695942 0.752954
158 1 0.165767 0.641378 0.862208
175 1 0.0210183 0.505814 0.915337
320 2 0.00737353 0.612771 0.901117
262 1 0.0114757 0.734374 0.979195
285 1 0.350527 0.605879 0.776633
108 1 0.269708 0.55816 0.873926
69 1 0.489917 0.642531 0.816266
22 1 0.303881 0.677336 0.938553
171 1 0.499833 0.562692 0.924226
279 1 0.441313 0.67833 0.95781
209 1 0.596064 0.749645 0.910865
205 1 0.620702 0.629421 0.981229
84 1 0.6837 0.711691 0.788816
272 1 0.694327 0.573239 0.851505
322 2 0.913744 0.523164 0.89378
31 1 0.922344 0.581838 0.781677
105 1 0.893979 0.656176 0.973322
241 1 0.751734 0.683521 0.938746
238 1 0.815117 0.543185 0.8831
83 1 0.813739 0.667821 0.80479
212 1 0.204454 0.786142 0.77195
183 1 0.183728 0.794143 0.927875
218 1 0.0970543 0.894963 0.936232
328 2 0.0504918 0.851847 0.830432
35 1 0.172173 0.95609 0.830592
131 1 0.22472 0.965866 0.977421
277 1 0.300078 0.830802 0.882038
139 1 0.479219 0.823691 0.895766
2 1 0.487926 0.962225 0.873026
346 2 0.318778 0.760996 0.810557
263 1 0.6939 0.950651 0.941143
261 1 0.60844 0.896587 0.806019
228 1 0.688946 0.815181 0.982473
46 1 0.724507 0.849648 0.785112
28 1 0.914482 0.773956 0.868058
232 1 0.953194 0.911996 0.873669
59 1 0.791614 0.797445 0.875023
208 1 0.78898 0.977842 0.82585
204 1 0.896546 0.876336 0.761412
304 2 0.933736 0.822564 0.96338
