ITEM: TIMESTEP
0
ITEM: NUMBER OF ATOMS
360
ITEM: BOX BOUNDS pp pp pp
0.0000000000000000e+00 6.6943295008216896e+00
0.0000000000000000e+00 6.6943295008216896e+00
0.0000000000000000e+00 6.6943295008216896e+00
ITEM: ATOMS id type xs ys zs
345 2 0.232873 0.00950674 0.0863464
182 1 0.0683844 0.171278 0.0607214
176 1 0.0239907 0.112756 0.247909
60 1 0.19603 0.126043 0.156031
18 1 0.102773 0.247528 0.230885
319 2 0.0480701 0.0527973 0.119987
288 1 0.234089 0.192366 0.00684134
338 2 0.483677 0.0246887 0.219778
113 1 0.331904 0.0920022 0.0477376
135 1 0.42299 0.12529 0.184755
224 1 0.317136 0.227057 0.135695
14 1 0.306796 0.00468683 0.201451
344 2 0.71215 0.083963 0.0871686
72 1 0.53527 0.207322 0.0751027
271 1 0.585997 0.0736663 0.0887122
251 1 0.695549 0.200603 0.178541
8 1 0.718831 0.203146 0.0187675
279 1 0.646732 0.0118894 0.207675
43 1 0.958762 0.221666 0.16517
105 1 0.945548 0.0903744 0.0491239
28 1 0.838201 0.182484 0.105445
340 2 0.918792 0.106368 0.174733
355 2 0.833164 0.191629 0.242202
221 1 0.806744 0.00400357 0.0872491
23 1 0.80155 0.0819232 0.232446
270 1 0.950219 0.240522 0.0119314
199 1 0.0174456 0.485296 0.18634
169 1 0.0339991 0.376798 0.0130251
231 1 0.160859 0.313574 0.0889079
300 2 0.0471734 0.363122 0.144211
16 1 0.140258 0.485036 0.0979525
330 2 0.213252 0.298714 0.203964
258 1 0.1259 0.409412 0.249757
93 1 0.286112 0.383508 0.0425592
249 1 0.43942 0.318357 0.0632002
38 1 0.389739 0.458259 0.114414
53 1 0.486581 0.264383 0.205154
277 1 0.25835 0.41209 0.189074
88 1 0.488352 0.462297 0.0120961
232 1 0.57292 0.360912 0.118395
287 1 0.639998 0.499655 0.202864
334 2 0.524751 0.476221 0.135607
155 1 0.729969 0.352985 0.0972098
130 1 0.661456 0.355563 0.242534
54 1 0.500496 0.420424 0.236049
163 1 0.777868 0.484171 0.159873
131 1 0.91485 0.345265 0.117527
240 1 0.81361 0.315178 0.23112
350 2 0.880357 0.466926 0.068806
309 2 0.807739 0.294925 0.0222664
337 2 0.168513 0.0905535 0.298346
99 1 0.220147 0.231362 0.462267
260 1 0.102887 0.191186 0.380147
66 1 0.195908 0.0838432 0.43476
111 1 0.00176097 0.114602 0.454738
65 1 0.0813866 0.0112854 0.377161
154 1 0.336297 0.128269 0.434061
41 1 0.461444 0.0522308 0.474855
164 1 0.394271 0.0171277 0.334022
127 1 0.264595 0.166263 0.305582
161 1 0.442044 0.170182 0.338971
241 1 0.546926 0.058708 0.336592
336 2 0.63554 0.0344076 0.467307
94 1 0.596092 0.198797 0.285098
162 1 0.561713 0.150587 0.448915
109 1 0.69889 0.0596279 0.358393
40 1 0.747472 0.210198 0.326406
46 1 0.716755 0.136112 0.498266
58 1 0.822151 0.241657 0.468965
321 2 0.931401 0.00277914 0.447341
170 1 0.923879 0.222 0.32074
157 1 0.854474 0.117254 0.395908
226 1 0.935138 0.00832073 0.316559
359 2 0.146984 0.455833 0.386413
13 1 0.128961 0.349113 0.442677
325 2 0.0555857 0.311942 0.347061
236 1 0.226083 0.310124 0.3347
243 1 0.0254678 0.454918 0.371216
4 1 0.365189 0.305631 0.40975
143 1 0.292576 0.448671 0.34109
120 1 0.365472 0.345727 0.262277
92 1 0.448626 0.433523 0.390248
301 2 0.391016 0.493385 0.254104
229 1 0.269209 0.398047 0.47223
196 1 0.649659 0.269597 0.438991
245 1 0.516725 0.306761 0.362533
24 1 0.61263 0.41816 0.391196
115 1 0.748182 0.449535 0.322191
71 1 0.779129 0.397976 0.469335
49 1 0.889523 0.476494 0.272627
78 1 0.904253 0.372213 0.387369
323 2 0.759159 0.324316 0.351968
187 1 0.989835 0.267858 0.482287
273 1 0.984671 0.354631 0.256755
103 1 0.108644 0.137231 0.683187
322 2 0.106306 0.0447593 0.531607
215 1 0.20588 0.246656 0.720947
118 1 0.110168 0.176582 0.539993
214 1 0.26154 0.140869 0.567801
20 1 0.376798 0.0356678 0.602314
45 1 0.275662 0.0937619 0.726503
6 1 0.424096 0.190039 0.539849
198 1 0.491077 0.0960586 0.691368
280 1 0.348333 0.23922 0.66392
44 1 0.604255 0.195841 0.585648
124 1 0.699905 0.0760613 0.658973
85 1 0.575947 0.016627 0.587025
299 2 0.994558 0.0838476 0.598968
208 1 0.828986 0.00941868 0.707228
219 1 0.828088 0.04746 0.55162
136 1 0.949634 0.0929392 0.711652
283 1 0.823842 0.192869 0.651982
259 1 0.977421 0.207142 0.612237
348 2 0.888072 0.150638 0.527969
50 1 0.0501745 0.281385 0.709342
200 1 0.0283246 0.375739 0.602771
253 1 0.188268 0.304796 0.578701
19 1 0.143212 0.408644 0.707633
223 1 0.145037 0.466222 0.554565
180 1 0.390127 0.491145 0.63727
168 1 0.278146 0.411182 0.634887
178 1 0.399015 0.36305 0.559161
104 1 0.414413 0.360255 0.73761
316 2 0.321168 0.264321 0.525368
98 1 0.507827 0.263328 0.666845
206 1 0.538425 0.323153 0.523042
107 1 0.729682 0.292009 0.574798
133 1 0.525227 0.413541 0.660368
48 1 0.662123 0.413413 0.571631
37 1 0.675771 0.404525 0.734809
171 1 0.695281 0.25625 0.716603
207 1 0.504468 0.485536 0.530461
354 2 0.78024 0.414752 0.592643
353 2 0.941385 0.347684 0.700273
102 1 0.8965 0.337856 0.557816
83 1 0.820553 0.345116 0.692757
165 1 0.886767 0.466039 0.650625
252 1 0.108359 0.187002 0.820709
175 1 0.163864 0.0234885 0.810324
257 1 0.0884332 0.0629257 0.933503
342 2 0.0299791 0.0709377 0.798946
328 2 0.0850661 0.199621 0.947214
282 1 0.256397 0.020246 0.948196
294 2 0.399389 0.0299537 0.967456
360 2 0.302929 0.0370884 0.834567
234 1 0.420916 0.210194 0.811799
7 1 0.449312 0.159694 0.966838
166 1 0.456693 0.066983 0.857275
160 1 0.256337 0.178621 0.840879
343 2 0.310665 0.131881 0.934922
216 1 0.533618 0.0105922 0.9645
263 1 0.601313 0.152482 0.765119
151 1 0.688437 0.0201598 0.98222
333 2 0.636711 0.0720454 0.860511
195 1 0.591979 0.169439 0.935427
126 1 0.911363 0.235858 0.771123
275 1 0.809113 0.106708 0.943814
153 1 0.770293 0.124462 0.785991
152 1 0.95503 0.125133 0.885855
306 2 0.181625 0.484207 0.795874
144 1 0.0149112 0.435978 0.773163
36 1 0.0127085 0.310257 0.871033
346 2 0.126425 0.339067 0.82614
79 1 0.179781 0.30692 0.925803
110 1 0.100939 0.461182 0.899589
156 1 0.244961 0.460369 0.905719
315 2 0.173283 0.410745 0.996262
17 1 0.315469 0.476904 0.774281
269 1 0.348157 0.281243 0.941126
27 1 0.279584 0.337242 0.818111
74 1 0.419072 0.432691 0.868214
298 2 0.476765 0.325961 0.934694
235 1 0.68475 0.266913 0.869035
230 1 0.732188 0.407301 0.943225
278 1 0.536689 0.30816 0.819777
238 1 0.611353 0.431888 0.872852
95 1 0.605204 0.323011 0.970542
308 2 0.757924 0.339391 0.802259
117 1 0.81928 0.452606 0.795347
332 2 0.952438 0.470992 0.876816
324 2 0.904152 0.3602 0.832143
246 1 0.875422 0.38821 0.962432
227 1 0.838298 0.254376 0.906147
114 1 0.0479536 0.661628 0.120983
22 1 0.196686 0.629856 0.15184
137 1 0.141442 0.740681 0.241227
331 2 0.228881 0.526151 0.223766
250 1 0.364533 0.600902 0.163344
281 1 0.297677 0.74041 0.183558
141 1 0.477266 0.610442 0.0674692
296 2 0.262151 0.501604 0.0767669
194 1 0.418684 0.741805 0.0691503
31 1 0.273918 0.676953 0.00262422
192 1 0.649908 0.644481 0.223507
312 2 0.615074 0.603972 0.103391
121 1 0.549212 0.740416 0.145696
347 2 0.712703 0.735256 0.0342287
33 1 0.748513 0.619051 0.0868277
209 1 0.515377 0.575741 0.211267
21 1 0.653985 0.505287 0.0265982
358 2 0.934668 0.705209 0.247817
47 1 0.821059 0.723365 0.171276
15 1 0.909304 0.600337 0.162107
311 2 0.89596 0.607665 0.04125
341 2 0.944019 0.715375 0.0741711
140 1 0.976624 0.513664 0.00360413
67 1 0.176238 0.760123 0.0912346
201 1 0.121326 0.996835 0.207781
149 1 0.134192 0.950481 0.0450935
76 1 0.220141 0.880199 0.18691
305 2 0.0997044 0.881829 0.16816
1 1 0.0101816 0.788706 0.174277
213 1 0.0485112 0.809959 0.018888
52 1 0.482859 0.876702 0.0140034
80 1 0.427122 0.845664 0.167407
112 1 0.448708 0.987401 0.0938971
172 1 0.314079 0.907174 0.0480891
150 1 0.606945 0.78326 0.00320036
286 1 0.567408 0.906853 0.130122
174 1 0.701935 0.897881 0.0574562
146 1 0.692827 0.786354 0.16286
302 2 0.634768 0.895498 0.247773
247 1 0.768078 0.913647 0.217218
148 1 0.847567 0.840847 0.0631322
39 1 0.963812 0.949485 0.157639
266 1 0.887017 0.83142 0.249316
181 1 0.138761 0.549494 0.308389
3 1 0.225306 0.564396 0.443631
25 1 0.137186 0.686844 0.399717
239 1 0.00233534 0.635984 0.444809
352 2 0.0943222 0.546592 0.462929
122 1 0.00377554 0.604071 0.295989
212 1 0.367364 0.673467 0.445108
205 1 0.363839 0.527253 0.480943
211 1 0.4224 0.733998 0.261117
292 2 0.472408 0.697995 0.371611
87 1 0.259779 0.679777 0.31869
188 1 0.429032 0.589575 0.335968
314 2 0.490836 0.594469 0.46413
96 1 0.580473 0.613427 0.385744
56 1 0.735832 0.643453 0.383918
310 2 0.689481 0.559885 0.317961
326 2 0.558515 0.509809 0.31634
119 1 0.688894 0.520886 0.460383
193 1 0.506176 0.724068 0.487651
75 1 0.796156 0.593361 0.263613
57 1 0.861535 0.551434 0.400282
202 1 0.880816 0.71862 0.363711
262 1 0.080751 0.811658 0.487353
191 1 0.0370429 0.896574 0.278077
303 2 0.229166 0.806077 0.291084
42 1 0.0150999 0.760074 0.340043
139 1 0.153373 0.864551 0.366799
63 1 0.232502 0.992283 0.329741
274 1 0.342764 0.869334 0.287344
233 1 0.262508 0.800349 0.438507
210 1 0.413717 0.818749 0.406726
145 1 0.331645 0.949053 0.453257
64 1 0.572802 0.771372 0.298498
142 1 0.749542 0.772109 0.299046
90 1 0.642284 0.754409 0.428389
12 1 0.501618 0.912911 0.280174
204 1 0.571606 0.924046 0.446795
62 1 0.707101 0.894193 0.359138
237 1 0.809563 0.977123 0.411518
68 1 0.793298 0.811461 0.464255
297 2 0.85242 0.856374 0.37037
248 1 0.966926 0.888017 0.429135
285 1 0.189798 0.546586 0.690579
35 1 0.160175 0.707713 0.722247
132 1 0.112719 0.613054 0.561677
356 2 0.0863327 0.741974 0.620074
222 1 0.0303147 0.520883 0.662013
30 1 0.26111 0.630796 0.572684
101 1 0.319636 0.612966 0.722939
217 1 0.437805 0.624691 0.580627
339 2 0.44232 0.608526 0.698486
351 2 0.265391 0.512633 0.568855
203 1 0.529986 0.707576 0.691921
61 1 0.728208 0.528755 0.634516
189 1 0.64495 0.64161 0.531582
167 1 0.565454 0.576063 0.649487
70 1 0.681786 0.717522 0.69505
159 1 0.993436 0.696426 0.713534
304 2 0.775919 0.651542 0.615787
128 1 0.932198 0.618908 0.608979
82 1 0.822458 0.599979 0.724077
242 1 0.82418 0.528247 0.530592
197 1 0.976498 0.502104 0.521462
9 1 0.827905 0.67451 0.502453
276 1 0.0172852 0.969824 0.549257
158 1 0.188866 0.775232 0.575207
100 1 0.147209 0.876081 0.717949
349 2 0.11969 0.890156 0.600908
129 1 0.205226 0.999819 0.632927
84 1 0.0636726 0.990106 0.70047
59 1 0.00581135 0.835012 0.639473
284 1 0.179769 0.942731 0.501193
320 2 0.259434 0.80495 0.686416
220 1 0.307011 0.900046 0.602457
244 1 0.344267 0.762188 0.570132
51 1 0.436375 0.822434 0.679898
190 1 0.455515 0.905204 0.546088
228 1 0.414683 0.960453 0.745809
147 1 0.704495 0.939593 0.532006
291 2 0.521439 0.928465 0.667732
265 1 0.725954 0.792611 0.586099
185 1 0.585143 0.826099 0.60136
116 1 0.676034 0.92147 0.678962
329 2 0.933346 0.97485 0.645427
357 2 0.79624 0.895066 0.639426
264 1 0.866344 0.763608 0.64207
81 1 0.880199 0.902822 0.551955
138 1 0.88979 0.86985 0.741814
55 1 0.943867 0.764976 0.5061
307 2 0.0441309 0.587448 0.913921
34 1 0.123234 0.7093 0.893219
10 1 0.103315 0.59018 0.805862
225 1 0.146161 0.590547 0.9898
218 1 0.252478 0.621407 0.855313
293 2 0.370279 0.56051 0.857957
272 1 0.421587 0.678619 0.822357
335 2 0.464124 0.693977 0.954049
11 1 0.482809 0.560981 0.900933
134 1 0.354192 0.52294 0.989482
177 1 0.487533 0.511569 0.767315
290 2 0.704274 0.541372 0.900203
179 1 0.56945 0.659068 0.826136
173 1 0.667629 0.540963 0.776263
256 1 0.728773 0.656759 0.85379
255 1 0.618383 0.639542 0.973171
289 2 0.963925 0.580161 0.754295
108 1 0.860966 0.738029 0.808823
73 1 0.917319 0.592013 0.872265
186 1 0.808985 0.52591 0.981872
318 2 0.998018 0.703151 0.861236
123 1 0.986779 0.668083 0.976522
86 1 0.833479 0.701477 0.991339
313 2 0.150982 0.819108 0.816478
29 1 0.0274398 0.814439 0.798307
183 1 0.0970255 0.904292 0.903792
77 1 0.214614 0.826572 0.955647
69 1 0.258107 0.769896 0.817983
106 1 0.499854 0.794581 0.886934
317 2 0.386891 0.834683 0.800786
267 1 0.272686 0.907333 0.790525
32 1 0.363804 0.773403 0.933144
2 1 0.371252 0.926673 0.898594
89 1 0.743681 0.801697 0.926377
327 2 0.501127 0.91962 0.852911
125 1 0.576425 0.829065 0.762318
5 1 0.616832 0.910923 0.896866
268 1 0.742667 0.843184 0.788408
295 2 0.654446 0.757465 0.846612
184 1 0.586495 0.995987 0.759333
261 1 0.728357 0.984915 0.823576
26 1 0.932358 0.809018 0.913121
254 1 0.963982 0.969717 0.844449
97 1 0.836726 0.934242 0.913109
91 1 0.958898 0.939398 0.994227
ITEM: TIMESTEP
50000
ITEM: NUMBER OF ATOMS
360
ITEM: BOX BOUNDS pp pp pp
0.0000000000000000e+00 6.6943295008216896e+00
0.0000000000000000e+00 6.6943295008216896e+00
0.0000000000000000e+00 6.6943295008216896e+00
ITEM: ATOMS id type xs ys zs
258 1 0.0891625 0.133352 0.205022
96 1 0.531297 0.492278 0.486453
51 1 0.492329 0.0179392 0.427837
18 1 0.127214 0.124372 0.0463214
191 1 0.244544 0.211684 0.155276
182 1 0.98073 0.172075 0.0931277
345 2 0.0230104 0.0345295 0.233743
330 2 0.236973 0.0978291 0.0886264
78 1 0.127938 0.490552 0.2446
41 1 0.498812 0.0182212 0.171169
260 1 0.43134 0.181545 0.150243
63 1 0.336 0.0569181 0.220552
161 1 0.549128 0.26026 0.0545465
135 1 0.344121 0.0270336 0.0761275
271 1 0.629511 0.0413364 0.227654
171 1 0.586181 0.186241 0.220061
251 1 0.689023 0.193511 0.104023
221 1 0.610303 0.0686222 0.061554
308 2 0.861493 0.233896 0.117739
246 1 0.754521 0.126865 0.232615
170 1 0.861669 0.257228 0.240735
28 1 0.922584 0.108143 0.226901
227 1 0.831928 0.112288 0.0854128
197 1 0.705044 0.473028 0.487375
169 1 0.0550582 0.404714 0.107274
339 2 0.0228116 0.405929 0.237189
234 1 0.245679 0.374039 0.132524
60 1 0.12437 0.283784 0.0676489
11 1 0.170094 0.326631 0.249739
109 1 0.464828 0.111349 0.00243859
293 2 0.367643 0.401793 0.123121
38 1 0.354816 0.315797 0.223361
195 1 0.39288 0.293316 0.0623994
127 1 0.497601 0.312722 0.193194
245 1 0.471182 0.420991 0.0524654
335 2 0.71098 0.410563 0.169618
232 1 0.64187 0.369335 0.0659602
49 1 0.637507 0.333219 0.257153
290 2 0.741297 0.247565 0.203958
249 1 0.313554 0.456379 0.000538805
93 1 0.00850282 0.292345 0.19733
146 1 0.907575 0.408073 0.185669
278 1 0.787047 0.332527 0.120258
117 1 0.935851 0.331484 0.0622037
134 1 0.815785 0.473772 0.067869
298 2 0.946473 0.473372 0.0679094
163 1 0.85367 0.282074 0.432512
226 1 0.11867 0.00126588 0.29993
214 1 0.123836 0.0939734 0.427216
337 2 0.229421 0.10665 0.233941
236 1 0.176137 0.19045 0.314915
139 1 0.268305 0.0500694 0.347392
65 1 0.0176675 0.173923 0.337076
6 1 0.352053 0.034095 0.488759
262 1 0.460682 0.149009 0.479274
277 1 0.334649 0.18926 0.287512
99 1 0.271259 0.172019 0.444792
357 2 0.379875 0.101781 0.377177
20 1 0.480047 0.125046 0.297467
105 1 0.16657 0.0158446 0.143991
309 2 0.727282 0.0405766 0.351379
157 1 0.61608 0.110839 0.387078
216 1 0.646259 0.207312 0.50116
24 1 0.777039 0.389505 0.283638
302 2 0.732978 0.149788 0.423246
350 2 0.939442 0.273977 0.328934
111 1 0.987684 0.0250652 0.364912
219 1 0.841324 0.107363 0.357803
92 1 0.592522 0.450654 0.183953
46 1 0.738654 0.0151849 0.467425
348 2 0.9957 0.41314 0.435199
58 1 0.0493857 0.331936 0.351072
154 1 0.228085 0.319306 0.379302
319 2 0.11449 0.23166 0.418975
87 1 0.140506 0.471683 0.400464
235 1 0.377753 0.422945 0.481582
284 1 0.380302 0.301092 0.387756
316 2 0.444363 0.254192 0.282465
334 2 0.28668 0.43687 0.382231
229 1 0.270566 0.443308 0.260946
53 1 0.325518 0.162664 0.0242419
273 1 0.995507 0.27095 0.470504
354 2 0.782799 0.406962 0.417075
66 1 0.539207 0.249399 0.368798
155 1 0.716877 0.23712 0.335311
54 1 0.645764 0.34664 0.435599
177 1 0.482879 0.396744 0.356417
43 1 0.909719 0.407148 0.348241
44 1 0.445517 0.461866 0.219694
336 2 0.88139 0.0153587 0.481332
338 2 0.541234 0.0130534 0.310957
288 1 0.00212847 0.00984015 0.100431
247 1 0.6685 0.493642 0.333764
97 1 0.140088 0.197566 0.539001
215 1 0.205134 0.17313 0.721312
132 1 0.140939 0.057692 0.617783
198 1 0.367461 0.0170553 0.896359
257 1 0.021382 0.161931 0.656367
152 1 0.966628 0.125466 0.503582
263 1 0.370371 0.130675 0.770852
4 1 0.284381 0.156657 0.593541
196 1 0.422692 0.0798715 0.618238
37 1 0.39561 0.255673 0.670355
267 1 0.283605 0.0338467 0.682138
208 1 0.709418 0.103683 0.616947
324 2 0.482623 0.145654 0.713095
138 1 0.564925 0.046225 0.699702
40 1 0.481324 0.308528 0.504469
261 1 0.639015 0.179053 0.740497
15 1 0.988972 0.32511 0.818878
299 2 0.644107 0.254282 0.61834
153 1 0.75279 0.273429 0.678018
126 1 0.855347 0.122482 0.662563
347 2 0.772722 0.152616 0.750021
344 2 0.920911 0.23991 0.728557
21 1 0.825069 0.256494 0.823032
289 2 0.0544238 0.289515 0.589735
103 1 0.160374 0.42843 0.661328
85 1 0.586309 0.0755885 0.535489
178 1 0.999608 0.381698 0.65126
222 1 0.16625 0.415077 0.997501
256 1 0.111106 0.298357 0.705089
185 1 0.715294 0.0365858 0.767432
285 1 0.24326 0.299991 0.653694
133 1 0.322847 0.432149 0.631878
19 1 0.260594 0.303223 0.986872
306 2 0.237373 0.371924 0.749071
355 2 0.873566 0.35365 0.782663
61 1 0.693463 0.43647 0.683207
162 1 0.530717 0.205707 0.608124
102 1 0.594571 0.368196 0.582014
167 1 0.461012 0.41366 0.63812
107 1 0.495818 0.247123 0.7765
131 1 0.755878 0.342527 0.542337
136 1 0.91506 0.262668 0.611609
207 1 0.84587 0.39581 0.664993
23 1 0.815185 0.139226 0.510726
181 1 0.0701238 0.0521909 0.929518
50 1 0.077512 0.180393 0.797251
224 1 0.182349 0.177529 0.916105
252 1 0.221679 0.0535088 0.822856
94 1 0.225484 0.0291603 0.976558
275 1 0.0410832 0.0358201 0.75557
57 1 0.905299 0.421113 0.529348
360 2 0.303574 0.133222 0.895791
116 1 0.404051 0.206176 0.898422
59 1 0.964352 0.0205297 0.606806
166 1 0.511653 0.0957044 0.841099
176 1 0.0776936 0.397075 0.534358
124 1 0.646497 0.100015 0.907555
184 1 0.557937 0.222093 0.912782
140 1 0.722363 0.280355 0.968692
341 2 0.703093 0.213842 0.870078
292 2 0.747573 0.134832 0.989991
36 1 0.00687045 0.422191 0.949349
186 1 0.870542 0.21829 0.961732
165 1 0.926531 0.144491 0.805193
5 1 0.791452 0.109636 0.868255
231 1 0.9246 0.0730122 0.968326
144 1 0.031808 0.213879 0.949227
10 1 0.773588 0.441498 0.813245
79 1 0.13471 0.320682 0.885482
187 1 0.0893692 0.434498 0.797908
98 1 0.27162 0.263776 0.831508
160 1 0.376154 0.366808 0.769771
329 2 0.208459 0.0812879 0.519446
83 1 0.412163 0.361774 0.915229
180 1 0.238941 0.425077 0.855616
238 1 0.923063 0.462412 0.77771
242 1 0.842249 0.373351 0.932135
259 1 0.670153 0.318736 0.811523
108 1 0.547665 0.395703 0.75941
125 1 0.714538 0.435877 0.948356
283 1 0.563266 0.380557 0.920504
346 2 0.355429 0.292796 0.530317
84 1 0.223169 0.377844 0.520096
27 1 0.439787 0.4997 0.869216
230 1 0.871981 0.00952767 0.76438
300 2 0.0306328 0.496224 0.714668
326 2 0.602188 0.007628 0.814578
342 2 0.0693148 0.0220994 0.507471
31 1 0.216789 0.649865 0.185128
296 2 0.0904246 0.615442 0.227807
47 1 0.0295315 0.675572 0.119445
104 1 0.155945 0.541316 0.0941944
88 1 0.480922 0.558022 0.098085
12 1 0.437011 0.689718 0.160954
55 1 0.323021 0.531555 0.158548
304 2 0.513948 0.753802 0.473488
95 1 0.280599 0.608841 0.0418155
77 1 0.457413 0.788048 0.055486
202 1 0.634786 0.614024 0.121441
237 1 0.735671 0.536491 0.183201
279 1 0.751094 0.697575 0.0813818
353 2 0.682247 0.792216 0.131986
118 1 0.0155377 0.538549 0.488131
206 1 0.996767 0.528969 0.167214
75 1 0.818902 0.677707 0.222669
114 1 0.884356 0.594585 0.10492
33 1 0.902861 0.750567 0.0601135
253 1 0.279959 0.538727 0.469138
110 1 0.170256 0.799337 0.114003
112 1 0.0783831 0.902642 0.185775
328 2 0.960983 0.876373 0.117818
76 1 0.122214 0.925802 0.018561
312 2 0.24557 0.924676 0.0920227
321 2 0.763562 0.862146 0.355606
32 1 0.311108 0.75886 0.0803512
274 1 0.360844 0.890446 0.158467
315 2 0.479552 0.906005 0.124707
286 1 0.611883 0.890594 0.095836
80 1 0.574904 0.73605 0.179902
8 1 0.746092 0.990774 0.120136
343 2 0.672535 0.920419 0.205627
113 1 0.592202 0.73355 0.00469192
143 1 0.0341371 0.563562 0.0136577
199 1 0.979254 0.787543 0.207043
282 1 0.467059 0.960723 0.0084152
174 1 0.817001 0.860499 0.138103
254 1 0.847568 0.807094 0.282099
90 1 0.85303 0.936728 0.388776
225 1 0.96717 0.645083 0.267498
3 1 0.100361 0.636935 0.386538
250 1 0.22037 0.574735 0.321903
16 1 0.233639 0.719065 0.393066
240 1 0.00948387 0.508665 0.328051
56 1 0.651065 0.930019 0.344432
244 1 0.345651 0.658011 0.278953
322 2 0.330046 0.655566 0.418388
48 1 0.410703 0.536151 0.353329
179 1 0.551261 0.584239 0.279309
192 1 0.692615 0.649806 0.284309
39 1 0.937605 0.94291 0.219239
123 1 0.0338442 0.812849 0.00781721
121 1 0.617993 0.601343 0.41969
297 2 0.756474 0.584573 0.37072
188 1 0.575526 0.743377 0.329558
64 1 0.460687 0.644329 0.441988
130 1 0.864468 0.538352 0.428012
243 1 0.848681 0.528551 0.276911
352 2 0.952735 0.621129 0.39053
142 1 0.840941 0.679633 0.37182
268 1 0.917925 0.804381 0.434766
210 1 0.267956 0.783186 0.25044
42 1 0.0142709 0.884385 0.33128
248 1 0.154445 0.944063 0.430606
164 1 0.081645 0.784712 0.435966
305 2 0.174019 0.83737 0.364577
264 1 0.307964 0.914809 0.403647
147 1 0.122221 0.742187 0.292367
325 2 0.994418 0.747452 0.343292
22 1 0.428805 0.789029 0.282004
211 1 0.243504 0.931509 0.257793
233 1 0.390791 0.778653 0.427219
241 1 0.501259 0.877831 0.390258
158 1 0.426974 0.949465 0.283536
265 1 0.708176 0.758169 0.406167
266 1 0.781263 0.975411 0.263841
151 1 0.705997 0.797893 0.256278
62 1 0.555854 0.895737 0.243423
340 2 0.877265 0.989051 0.110303
239 1 0.76308 0.874865 0.494892
2 1 0.614268 0.840149 0.476439
323 2 0.647068 0.501583 0.0679216
194 1 0.729888 0.86301 0.0200476
314 2 0.591103 0.952859 0.493477
149 1 0.32122 0.894977 0.00381733
301 2 0.150718 0.565777 0.491783
1 1 0.888716 0.910293 0.00903188
156 1 0.148058 0.693337 0.00783453
276 1 0.999759 0.911083 0.496135
200 1 0.0949914 0.55383 0.617917
25 1 0.0492743 0.685552 0.582788
159 1 0.173227 0.726567 0.679931
74 1 0.445051 0.646095 0.992519
333 2 0.866196 0.982086 0.903474
205 1 0.38871 0.669264 0.681654
217 1 0.429033 0.677629 0.848441
332 2 0.288826 0.635452 0.748298
203 1 0.424472 0.545535 0.582512
168 1 0.251371 0.602112 0.634188
209 1 0.613133 0.560564 0.605503
9 1 0.504887 0.682219 0.574149
119 1 0.693279 0.623241 0.705776
82 1 0.644263 0.70883 0.577688
101 1 0.520991 0.582858 0.738438
287 1 0.817629 0.701986 0.633253
29 1 0.955372 0.736023 0.70449
223 1 0.937826 0.572908 0.661542
331 2 0.891304 0.540298 0.550282
193 1 0.350055 0.669633 0.536699
13 1 0.907502 0.664774 0.515429
307 2 0.066865 0.798364 0.687908
122 1 0.121572 0.835345 0.573366
313 2 0.0670262 0.944551 0.6109
129 1 0.138749 0.921421 0.717176
45 1 0.248333 0.951645 0.551944
175 1 0.99114 0.893728 0.690129
356 2 0.0102571 0.791859 0.538397
317 2 0.299191 0.745195 0.638706
212 1 0.413682 0.826133 0.609023
145 1 0.267943 0.862911 0.671565
189 1 0.499558 0.954138 0.579957
69 1 0.446078 0.821059 0.755793
68 1 0.275371 0.806746 0.527114
35 1 0.377928 0.528792 0.742098
190 1 0.427195 0.982206 0.730846
30 1 0.195647 0.692257 0.540423
81 1 0.813982 0.978622 0.611945
255 1 0.563573 0.829336 0.644012
26 1 0.723291 0.833736 0.635255
204 1 0.663376 0.958071 0.617253
310 2 0.763328 0.739931 0.532628
128 1 0.88233 0.824172 0.582862
115 1 0.789115 0.536907 0.627231
295 2 0.890035 0.763254 0.816183
17 1 0.193506 0.542666 0.769293
73 1 0.0724437 0.63396 0.751105
291 2 0.92439 0.803646 0.928368
218 1 0.203381 0.693793 0.833966
67 1 0.01583 0.554866 0.862579
349 2 0.0990658 0.649806 0.893891
280 1 0.165584 0.545886 0.925947
120 1 0.559356 0.534599 0.968172
213 1 0.949658 0.901823 0.840526
269 1 0.312297 0.592382 0.885874
303 2 0.381778 0.898061 0.507373
14 1 0.317822 0.744546 0.938392
100 1 0.854637 0.857058 0.721605
141 1 0.768167 0.744197 0.760723
272 1 0.635694 0.657131 0.875891
150 1 0.768098 0.590355 0.835917
228 1 0.583415 0.732096 0.765868
72 1 0.751193 0.996261 0.9553
137 1 0.876141 0.528924 0.937929
327 2 0.821803 0.614393 0.726825
86 1 0.910735 0.63677 0.807412
311 2 0.869388 0.642541 0.985069
148 1 0.982878 0.688688 0.924374
183 1 0.194313 0.818571 0.927309
320 2 0.181784 0.809048 0.7688
34 1 0.0542333 0.777198 0.813691
201 1 0.105841 0.917568 0.863027
351 2 0.0044662 0.931707 0.96971
359 2 0.362237 0.952098 0.620114
281 1 0.322524 0.759836 0.777369
270 1 0.29143 0.908432 0.813785
358 2 0.38579 0.871699 0.896937
220 1 0.501897 0.797463 0.899611
91 1 0.805886 0.744036 0.920478
89 1 0.662026 0.809191 0.88382
294 2 0.760665 0.931034 0.719817
172 1 0.641548 0.891219 0.764545
7 1 0.498267 0.930935 0.850074
52 1 0.610968 0.940969 0.946616
106 1 0.787136 0.886615 0.851799
173 1 0.637083 0.503017 0.829829
70 1 0.723435 0.581263 0.982169
318 2 0.421773 0.524038 0.977636
71 1 0.742639 0.620072 0.50919
ITEM: TIMESTEP
100000
ITEM: NUMBER OF ATOMS
360
ITEM: BOX BOUNDS pp pp pp
0.0000000000000000e+00 6.6943295008216896e+00
0.0000000000000000e+00 6.6943295008216896e+00
0.0000000000000000e+00 6.6943295008216896e+00
ITEM: ATOMS id type xs ys zs
60 1 0.243164 0.190921 0.117867
236 1 0.0859325 0.211631 0.128224
360 2 0.199884 0.045303 0.172543
308 2 0.0274336 0.0930201 0.13987
35 1 0.484625 0.439507 0.0283727
123 1 0.134352 0.0695797 0.0657027
53 1 0.309586 0.0818679 0.241851
98 1 0.398925 0.14565 0.103183
191 1 0.293271 0.0469622 0.0992201
124 1 0.462333 0.104604 0.267391
221 1 0.40571 0.289656 0.0897762
346 2 0.482052 0.223254 0.167355
247 1 0.845443 0.480512 0.344004
232 1 0.605642 0.155726 0.124885
1 1 0.786154 0.137628 0.0692406
353 2 0.837303 0.087782 0.187573
297 2 0.559743 0.0504536 0.068298
140 1 0.930154 0.158006 0.131696
333 2 0.874298 0.00506243 0.0700477
351 2 0.875379 0.227379 0.0245965
178 1 0.804442 0.0117597 0.292248
339 2 1.00086 0.456394 0.232235
316 2 0.190985 0.30524 0.0709713
222 1 0.169615 0.450897 0.103137
352 2 0.195959 0.439685 0.218202
270 1 0.455718 -0.00510232 0.0244297
345 2 0.962571 0.227367 0.365283
24 1 0.0624185 0.354617 0.188028
253 1 0.280922 0.355571 0.154833
177 1 0.559463 0.350012 0.166253
245 1 0.413162 0.471195 0.151662
296 2 0.409497 0.466583 0.328505
335 2 0.608712 0.412137 0.0588504
8 1 0.734329 0.194493 0.245764
283 1 0.688689 0.289256 0.114519
179 1 0.728011 0.352563 0.243978
92 1 0.569728 0.483257 0.216447
120 1 0.540367 0.285757 0.0233309
153 1 0.681856 0.0216146 0.123706
117 1 0.00642449 0.472022 0.0987956
28 1 0.954959 0.318048 0.0697292
186 1 0.829692 0.272419 0.151226
125 1 0.885747 0.406116 0.20736
219 1 0.951599 0.272072 0.24014
329 2 0.145382 0.135132 0.388038
276 1 0.160328 0.127853 0.252782
93 1 0.0429443 0.0361281 0.383757
238 1 0.806137 0.341548 0.0313645
41 1 0.368951 0.233303 0.240454
63 1 0.277234 0.172328 0.38323
154 1 0.436744 0.240736 0.390565
195 1 0.356699 0.0297723 0.378932
39 1 0.00757174 0.00446428 0.0219218
278 1 0.557624 0.230157 0.264699
6 1 0.564901 0.144676 0.398319
262 1 0.634081 0.0855207 0.268569
167 1 0.678727 0.246891 0.373531
43 1 0.851402 0.312634 0.35
290 2 0.920878 0.0475586 0.319948
85 1 0.0805318 0.172703 0.47634
182 1 0.801332 0.256745 0.480938
258 1 0.0098661 0.136507 0.280695
208 1 0.745465 0.0974832 0.39356
246 1 0.860111 0.165301 0.310891
266 1 0.930491 0.13524 0.432543
78 1 0.213631 0.264893 0.259372
143 1 0.0754657 0.268524 0.34316
298 2 0.0787759 0.375665 0.440694
240 1 0.195562 0.305949 0.446177
111 1 0.964419 0.465164 0.481696
30 1 0.155657 0.383003 0.322068
354 2 0.865334 0.394208 0.457092
97 1 0.308824 0.344487 0.349468
49 1 0.452155 0.365605 0.27369
133 1 0.462963 0.39484 0.417969
338 2 0.615976 0.0196405 0.400407
9 1 0.727139 0.385909 0.41305
163 1 0.610397 0.448506 0.49409
136 1 0.979584 0.292908 0.470081
44 1 0.572868 0.288354 0.461146
202 1 0.60337 0.384424 0.326168
273 1 0.980752 0.388817 0.337969
132 1 0.214745 0.0294686 0.38263
288 1 0.935871 0.0222173 0.199147
292 2 0.664718 0.209575 0.0132997
235 1 0.308317 0.465658 0.263146
320 2 0.237239 0.42623 0.424812
279 1 0.700106 0.449993 0.128317
229 1 0.128928 0.494537 0.420084
18 1 0.0807125 0.00631905 0.234898
307 2 0.964649 0.0120488 0.484605
249 1 0.334272 0.425576 0.0237979
77 1 0.126885 0.0216775 0.783197
162 1 0.103813 0.12831 0.670547
4 1 0.965361 0.0346022 0.730342
11 1 0.226318 0.107417 0.520993
119 1 0.775045 0.47839 0.980711
19 1 0.234215 0.201077 0.675902
228 1 0.672281 0.446858 0.692574
37 1 0.365016 0.115639 0.634462
172 1 0.44674 0.139011 0.762153
214 1 0.5032 0.183137 0.54575
275 1 0.115494 0.0180408 0.505823
180 1 0.437793 0.498694 0.870802
355 2 0.967154 0.364684 0.942862
138 1 0.502926 0.0591134 0.65586
285 1 0.589682 0.180256 0.718596
231 1 0.683535 0.075434 0.640923
170 1 0.667315 0.170237 0.508402
146 1 0.996834 0.0996014 0.581616
40 1 0.827684 0.100873 0.544647
261 1 0.905449 0.201868 0.626365
230 1 0.751849 0.22867 0.634813
213 1 0.814031 0.0514037 0.705723
313 2 0.160604 0.209024 0.577895
257 1 0.0919363 0.417534 0.573365
207 1 0.0963981 0.298193 0.675866
118 1 0.151816 0.479373 0.704059
302 2 0.0298757 0.229522 0.582876
250 1 0.228829 0.491065 0.531576
242 1 0.920423 0.48332 0.976233
58 1 0.21823 0.350202 0.598937
64 1 0.320086 0.450051 0.650256
87 1 0.368461 0.285118 0.66555
96 1 0.474163 0.338312 0.55814
107 1 0.460486 0.42311 0.694252
342 2 0.643481 0.0574509 0.754386
301 2 0.475447 0.218848 0.665812
196 1 0.427286 0.0637819 0.506676
155 1 0.615734 0.306291 0.619497
341 2 0.719864 0.337759 0.682911
315 2 0.408585 0.322141 0.969896
299 2 0.55684 0.420834 0.609083
10 1 0.849417 0.395182 0.868812
65 1 0.74856 0.388051 0.570873
27 1 0.832219 0.433284 0.718618
131 1 0.935661 0.360782 0.626507
310 2 0.868428 0.46105 0.588791
350 2 0.709891 0.047238 0.511564
256 1 0.989338 0.202922 0.749546
215 1 0.214522 0.469226 0.842207
129 1 0.230928 0.0736429 0.938983
94 1 0.143802 0.179289 0.804339
144 1 0.151074 0.200883 0.978082
52 1 0.213108 0.0206111 0.648463
109 1 0.460959 0.2283 0.881853
54 1 0.265781 0.0871117 0.764258
105 1 0.397767 0.0736519 0.898055
187 1 0.322251 0.213186 0.831524
263 1 0.557871 0.0906725 0.853898
184 1 0.720731 0.173276 0.781147
48 1 0.629264 0.222828 0.886822
106 1 0.662689 0.0855216 0.982831
152 1 0.734108 0.0219884 0.849187
169 1 0.230281 0.318653 0.93766
50 1 0.922121 0.260689 0.89889
90 1 0.873411 0.128183 0.827098
116 1 0.782128 0.212196 0.945503
15 1 0.888327 0.0865428 0.970757
34 1 0.094701 0.362423 0.983419
267 1 0.0240663 0.111683 0.871041
303 2 0.691605 0.300308 0.505412
321 2 0.0578852 0.241338 0.898724
224 1 0.118989 0.333017 0.837362
160 1 0.246513 0.357276 0.743959
269 1 0.359369 0.359943 0.859056
110 1 0.330015 0.218821 0.983174
293 2 0.349839 0.45216 0.769923
121 1 0.531627 0.373326 0.904779
216 1 0.981666 0.351981 0.776922
5 1 0.843534 0.271551 0.760408
284 1 0.310671 0.229221 0.534213
66 1 0.498782 0.304273 0.76054