ITEM: TIMESTEP
0
ITEM: NUMBER OF ATOMS
360
ITEM: BOX BOUNDS pp pp pp
0.0000000000000000e+00 6.6943295008216896e+00
0.0000000000000000e+00 6.6943295008216896e+00
0.0000000000000000e+00 6.6943295008216896e+00
ITEM: ATOMS id type xs ys zs
17 1 0.0909538 0.177919 0.189936
247 1 0.129545 0.0303685 0.116897
242 1 0.118296 0.17196 0.0312021
175 1 0.0131947 0.0321598 0.224076
41 1 0.250263 0.130044 0.139551
223 1 0.403704 0.0791465 0.0955388
121 1 0.368694 0.175701 0.228063
327 2 0.488162 0.146954 0.0352418
342 2 0.33229 0.047073 0.213874
294 2 0.348334 0.177109 0.0387129
308 2 0.513941 0.0650956 0.148602
96 1 0.507902 0.198331 0.149069
77 1 0.611393 0.125428 0.067293
226 1 0.607223 0.102859 0.228922
262 1 0.743098 0.111847 0.13966
122 1 0.514732 0.00954981 0.0241879
91 1 0.983974 0.105737 0.0912448
126 1 0.869306 0.209012 0.0864293
135 1 0.877089 0.119208 0.22281
345 2 0.984704 0.230912 0.0367754
21 1 0.81305 0.0869415 0.00202511
100 1 0.22071 0.416209 0.0357053
203 1 0.108204 0.302902 0.110101
179 1 0.184951 0.431443 0.186855
217 1 0.0228666 0.429234 0.158144
27 1 0.243592 0.285832 0.165812
281 1 0.245063 0.250029 0.0140215
235 1 0.380902 0.286613 0.0966542
169 1 0.340845 0.418078 0.131996
118 1 0.432996 0.335154 0.243298
59 1 0.453979 0.409323 0.0328456
353 2 0.331593 0.482549 0.234842
150 1 0.643663 0.252138 0.208582
129 1 0.571173 0.388313 0.128329
200 1 0.731917 0.29753 0.0735371
184 1 0.702228 0.396999 0.19811
5 1 0.729871 0.45996 0.0655688
352 2 0.57206 0.470002 0.230617
268 1 0.58473 0.283761 0.0213418
151 1 0.969192 0.284875 0.172872
343 2 0.826365 0.385412 0.0168384
50 1 0.85386 0.40265 0.146391
163 1 0.957165 0.362143 0.00840152
13 1 0.808263 0.266814 0.211733
45 1 0.196261 0.0464329 0.258015
86 1 0.221414 0.186112 0.296842
63 1 0.202424 0.0830175 0.426689
130 1 0.080818 0.13613 0.340089
329 2 0.0115765 0.20299 0.433588
106 1 0.160466 0.243734 0.429753
282 1 0.353697 0.0237532 0.480176
99 1 0.461706 0.042008 0.262304
36 1 0.467525 0.107497 0.425461
97 1 0.329525 0.0699829 0.34636
103 1 0.341593 0.230231 0.371258
132 1 0.4966 0.201258 0.318216
131 1 0.643676 0.0638048 0.461559
323 2 0.562456 0.0773027 0.344474
15 1 0.660225 0.174086 0.353132
309 2 0.74699 0.152946 0.254813
158 1 0.708478 0.225155 0.494081
137 1 0.777504 0.0518371 0.336198
227 1 0.962268 0.222982 0.321697
48 1 0.820466 0.190591 0.365506
254 1 0.940079 0.0802673 0.394953
108 1 0.796258 0.0763479 0.496944
208 1 0.100639 0.316105 0.269058
136 1 0.0225629 0.357788 0.425988
248 1 0.150058 0.441153 0.449826
216 1 0.0755772 0.456787 0.316689
72 1 0.24516 0.344628 0.313347
314 2 0.278533 0.498554 0.449185
176 1 0.288514 0.343739 0.484271
47 1 0.352871 0.445702 0.351217
80 1 0.439898 0.339741 0.401479
31 1 0.392604 0.455218 0.494313
286 1 0.56046 0.253289 0.452991
259 1 0.717154 0.331538 0.351306
230 1 0.573917 0.355818 0.292231
165 1 0.597466 0.396871 0.450023
285 1 0.508685 0.489484 0.339639
215 1 0.820984 0.456521 0.321635
125 1 0.945144 0.492476 0.39268
279 1 0.950089 0.377701 0.280097
220 1 0.870957 0.333354 0.402325
22 1 0.775772 0.44508 0.480214
113 1 0.155949 0.166314 0.643812
154 1 0.0628562 0.0288875 0.652473
111 1 0.234484 0.0374336 0.585408
267 1 0.237014 0.0778683 0.745323
104 1 0.0775858 0.127044 0.502961
37 1 0.304162 0.188369 0.668969
9 1 0.467966 0.141248 0.641263
339 2 0.358815 0.124436 0.568861
134 1 0.382751 0.0104017 0.635659
107 1 0.263158 0.186775 0.522359
81 1 0.411065 0.233982 0.514758
303 2 0.515912 0.0564908 0.712444
56 1 0.640064 0.0323708 0.740402
204 1 0.622702 0.160727 0.608441
321 2 0.519657 0.148069 0.529273
76 1 0.546647 0.0178302 0.587597
66 1 0.952199 0.137797 0.64107
195 1 0.785261 0.182349 0.643061
256 1 0.789788 0.0543264 0.722373
148 1 0.959525 0.0385357 0.535164
338 2 0.854916 0.0469733 0.616386
24 1 0.900348 0.205165 0.511749
287 1 0.941551 0.00977617 0.738109
332 2 0.0456703 0.297551 0.689987
239 1 0.0175975 0.271706 0.576614
229 1 0.188129 0.309295 0.62614
225 1 0.158232 0.444451 0.719386
94 1 0.0739772 0.429456 0.586486
67 1 0.238984 0.452361 0.579939
123 1 0.362069 0.346569 0.61723
317 2 0.486458 0.361375 0.515216
313 2 0.284073 0.438634 0.694569
198 1 0.428946 0.422323 0.736062
172 1 0.426621 0.261396 0.740485
73 1 0.519633 0.477617 0.593429
139 1 0.525496 0.294483 0.626118
147 1 0.677417 0.42689 0.619462
12 1 0.680648 0.286609 0.681723
322 2 0.634225 0.323104 0.550863
250 1 0.585398 0.432627 0.735589
33 1 0.997122 0.425971 0.723766
11 1 0.905574 0.291397 0.671886
25 1 0.79777 0.329625 0.574059
1 1 0.929667 0.394978 0.535619
109 1 0.841676 0.463347 0.654736
302 2 0.216421 0.20265 0.766576
257 1 0.0525382 0.154696 0.753702
124 1 0.165964 0.161519 0.881963
218 1 0.0965454 0.0258737 0.947284
284 1 0.100906 0.0106909 0.798282
74 1 0.39824 0.0871751 0.766317
330 2 0.318855 0.0638752 0.855201
222 1 0.409593 0.103964 0.936324
252 1 0.313826 0.201364 0.83972
304 2 0.457285 0.18547 0.843407
115 1 0.253438 0.0798963 0.994376
90 1 0.558812 0.169318 0.764205
55 1 0.707544 0.204185 0.953977
178 1 0.676198 0.0509541 0.902796
251 1 0.715717 0.170032 0.7829
152 1 0.566398 0.160402 0.918129
246 1 0.520893 0.0255731 0.852059
347 2 0.979496 0.0568009 0.837424
174 1 0.999921 0.154185 0.920618
312 2 0.808251 0.142988 0.89422
140 1 0.888297 0.157111 0.786367
7 1 0.848623 0.0247142 0.866807
291 2 0.941338 0.0401541 0.981503
206 1 0.0808779 0.454655 0.978239
138 1 0.126037 0.306918 0.79507
221 1 0.105148 0.304282 0.945166
348 2 0.0533924 0.405192 0.860416
255 1 0.196788 0.426404 0.879764
349 2 0.225577 0.298561 0.889748
346 2 0.326089 0.362552 0.994191
182 1 0.281363 0.322422 0.75133
245 1 0.427794 0.256751 0.953247
141 1 0.352196 0.368582 0.868892
168 1 0.339747 0.496869 0.971863
35 1 0.596055 0.462197 0.990609
23 1 0.505979 0.360474 0.87193
298 2 0.619134 0.433189 0.86334
289 2 0.528597 0.320657 0.754795
128 1 0.727557 0.362066 0.932719
52 1 0.740531 0.428857 0.780479
277 1 0.637668 0.29051 0.83814
32 1 0.868495 0.414674 0.897775
98 1 0.80834 0.287475 0.793488
310 2 0.881704 0.39301 0.766385
211 1 0.970377 0.307348 0.829897
110 1 0.857305 0.256433 0.940257
51 1 0.0508544 0.580746 0.205492
65 1 0.148307 0.550559 0.0841969
44 1 0.213135 0.636165 0.196341
190 1 0.0987424 0.697628 0.089199
243 1 0.102685 0.733584 0.247284
261 1 0.248705 0.662794 0.0386486
305 2 0.338745 0.679186 0.173164
6 1 0.338131 0.567975 0.11902
78 1 0.485534 0.66311 0.172774
264 1 0.393767 0.701822 0.0496137
105 1 0.488779 0.571624 0.0332196
197 1 0.465511 0.502951 0.18584
69 1 0.667522 0.684903 0.138375
295 2 0.540682 0.686672 0.0618674
320 2 0.714763 0.718651 0.00595623
276 1 0.741221 0.544224 0.212829
170 1 0.606334 0.539995 0.130784
311 2 0.987238 0.536757 0.0995996
2 1 0.897063 0.512811 0.0113443
275 1 0.786708 0.616166 0.0629641
187 1 0.938661 0.658488 0.10768
155 1 0.795806 0.689067 0.21248
207 1 0.903376 0.530841 0.218343
280 1 0.128351 0.858141 0.128854
301 2 0.112412 0.942001 0.212298
87 1 0.0140473 0.947827 0.0606827
10 1 0.246048 0.843903 0.0203544
356 2 0.185264 0.961117 0.0200092
205 1 0.254769 0.781787 0.163126
8 1 0.267452 0.957069 0.133223
159 1 0.405248 0.784913 0.214685
326 2 0.359355 0.847709 0.0880925
270 1 0.437117 0.933667 0.142341
196 1 0.467044 0.84676 0.0138389
19 1 0.683289 0.986146 0.0525693
201 1 0.579504 0.945913 0.165533
144 1 0.53635 0.801237 0.141466
269 1 0.687292 0.83078 0.107355
315 2 0.58315 0.879209 0.0591916
358 2 0.610449 0.838606 0.234902
29 1 0.748339 0.969091 0.209983
219 1 0.870467 0.991058 0.115918
293 2 0.956914 0.930614 0.184383
119 1 0.982562 0.808346 0.124497
340 2 0.783087 0.906526 0.0698178
180 1 0.853564 0.842473 0.205607
54 1 0.82816 0.773164 0.0729173
162 1 0.219594 0.534095 0.316061
42 1 0.0501758 0.613694 0.365046
350 2 0.0812084 0.672476 0.476443
194 1 0.179541 0.599947 0.444726
307 2 0.166147 0.650417 0.322846
199 1 0.1379 0.74568 0.397455
160 1 0.271157 0.718516 0.312325
344 2 0.292794 0.633623 0.39993
30 1 0.353854 0.600466 0.270877
4 1 0.408932 0.594951 0.427737
212 1 0.430101 0.735437 0.358436
290 2 0.476864 0.625329 0.309532
189 1 0.318601 0.739786 0.47508
133 1 0.59091 0.595188 0.269389
85 1 0.556208 0.628023 0.41655
253 1 0.697026 0.661604 0.355368
183 1 0.560911 0.735065 0.293147
297 2 0.507515 0.51657 0.46138
116 1 0.679159 0.50777 0.364945
333 2 0.757378 0.577833 0.443516
20 1 0.945229 0.690816 0.257577
357 2 0.942959 0.629693 0.435558
341 2 0.809934 0.734947 0.328961
26 1 0.838735 0.705666 0.458167
149 1 0.852705 0.606585 0.35101
16 1 0.187091 0.861617 0.278544
355 2 0.0876623 0.85 0.394783
43 1 0.24027 0.934515 0.41109
228 1 0.0943078 0.979929 0.357934
318 2 0.298446 0.814363 0.380544
95 1 0.337904 0.934349 0.271439
249 1 0.392435 0.880929 0.442136
238 1 0.486217 0.889976 0.286353
337 2 0.418607 0.980109 0.362101
114 1 0.607164 0.837638 0.412469
18 1 0.73237 0.926354 0.419416
70 1 0.631917 0.960054 0.311037
319 2 0.736388 0.780873 0.435296
265 1 0.529295 0.95721 0.435521
244 1 0.716965 0.826071 0.298262
336 2 0.852111 0.987449 0.412575
112 1 0.971207 0.904669 0.436378
232 1 0.856794 0.838771 0.381211
272 1 0.894753 0.965682 0.292502
258 1 0.981676 0.755701 0.40596
88 1 0.999248 0.841882 0.279948
142 1 0.0600114 0.578878 0.654513
271 1 0.184949 0.689203 0.566908
354 2 0.159621 0.553949 0.566283
92 1 0.232037 0.58435 0.679557
283 1 0.0758897 0.72969 0.671776
93 1 0.0342828 0.551605 0.507218
117 1 0.39281 0.688204 0.623052
83 1 0.298526 0.587644 0.529849
214 1 0.364004 0.529953 0.643779
171 1 0.483998 0.575108 0.730602
177 1 0.499634 0.733785 0.709801
210 1 0.487927 0.746388 0.50075
236 1 0.54218 0.637123 0.585092
46 1 0.632043 0.56232 0.679676
193 1 0.633627 0.734378 0.649289
186 1 0.659556 0.537328 0.513759
157 1 0.665551 0.693871 0.510635
209 1 0.764657 0.747542 0.728957
266 1 0.874837 0.554923 0.520696
75 1 0.755149 0.633059 0.61792
161 1 0.91126 0.620227 0.68361
89 1 0.967682 0.684544 0.557333
331 2 0.951771 0.514474 0.619601
233 1 0.124055 0.880958 0.663165
260 1 0.243633 0.871423 0.546649
14 1 0.0847562 0.798873 0.526566
146 1 0.115104 0.960821 0.507949
300 2 0.0402388 0.927173 0.740004
288 1 0.2565 0.773744 0.675793
292 2 0.455867 0.95012 0.537847
231 1 0.268617 0.922538 0.718245
60 1 0.400302 0.848474 0.596564
68 1 0.507039 0.926271 0.7071
127 1 0.710443 0.834649 0.546263
240 1 0.560857 0.850413 0.577107
49 1 0.674169 0.887157 0.689337
325 2 0.635839 0.927863 0.506026
237 1 0.715734 0.993854 0.591601
62 1 0.844059 0.771517 0.592498
58 1 0.846401 0.926496 0.532056
166 1 0.976493 0.903102 0.614391
64 1 0.821913 0.907625 0.682861
185 1 0.926243 0.779694 0.716198
296 2 0.94729 0.811254 0.523273
84 1 0.166227 0.661193 0.790002
360 2 0.20381 0.533766 0.787377
61 1 0.207679 0.572289 0.929364
192 1 0.0155216 0.602641 0.985435
213 1 0.140733 0.715647 0.944849
102 1 0.0738201 0.521067 0.830778
241 1 0.000429005 0.664545 0.815421
38 1 0.33366 0.657713 0.769477
188 1 0.369263 0.631272 0.922382
306 2 0.413412 0.719322 0.837157
316 2 0.268629 0.692921 0.888762
328 2 0.470821 0.733343 0.954638
79 1 0.318569 0.505522 0.804327
278 1 0.468598 0.517008 0.869182
101 1 0.638507 0.61631 0.995296
299 2 0.649615 0.659778 0.765734
82 1 0.534945 0.679483 0.851915
153 1 0.63409 0.556177 0.843513
167 1 0.729385 0.691163 0.870918
145 1 0.774151 0.580276 0.763716
156 1 0.760229 0.536403 0.925762
351 2 0.860371 0.675277 0.781017
274 1 0.874248 0.659764 0.907231
164 1 0.921138 0.537706 0.814134
28 1 0.0955885 0.856838 0.967347
53 1 0.0757755 0.821006 0.801983
40 1 0.227924 0.821902 0.836112
263 1 0.223697 0.966547 0.879874
173 1 0.371299 0.810826 0.76103
273 1 0.371694 0.949325 0.833888
39 1 0.348741 0.785717 0.933477
334 2 0.458067 0.932056 0.919338
120 1 0.485147 0.829498 0.856302
57 1 0.357199 0.961971 0.998072
3 1 0.737402 0.844538 0.964255
34 1 0.630067 0.785968 0.798908
224 1 0.589835 0.916297 0.93263
335 2 0.588497 0.908243 0.805953
191 1 0.723742 0.919772 0.826978
181 1 0.600824 0.759476 0.965876
143 1 0.9655 0.780106 0.949482
202 1 0.987041 0.92482 0.866569
234 1 0.84154 0.801941 0.857355
359 2 0.872962 0.911281 0.796714
324 2 0.76689 0.961419 0.944287
71 1 0.881491 0.902744 0.986782
ITEM: TIMESTEP
1000000
ITEM: NUMBER OF ATOMS
360
ITEM: BOX BOUNDS pp pp pp
0.0000000000000000e+00 6.6943295008216896e+00
0.0000000000000000e+00 6.6943295008216896e+00
0.0000000000000000e+00 6.6943295008216896e+00
ITEM: ATOMS id type xs ys zs
17 1 0.0343156 0.13275 0.112372
217 1 0.152994 0.226557 0.155554
86 1 0.242594 0.123209 0.114891
63 1 0.129308 0.0495719 0.222882
351 2 0.770275 0.4926 0.122133
96 1 0.398474 0.0976186 0.105944
353 2 0.281617 0.036183 0.023442
41 1 0.366534 0.143624 0.251071
146 1 0.254814 0.0770034 0.460345
312 2 0.479637 0.121401 0.185847
150 1 0.619884 0.141132 0.208785
268 1 0.516225 0.228018 0.0439508
19 1 0.55086 0.0666182 0.0892967
21 1 0.709436 0.093963 0.099253
310 2 0.63861 0.189243 0.0707141
259 1 0.73521 0.227569 0.165954
220 1 0.876645 0.160529 0.126897
326 2 0.938934 0.0499749 0.0650502
339 2 0.774958 0.436866 0.340157
279 1 0.11152 0.342193 0.0501308
216 1 0.0725571 0.371671 0.223451
176 1 0.22117 0.412532 0.241083
281 1 0.241356 0.363978 0.102762
27 1 0.128709 0.473979 0.115059
245 1 0.339931 0.233122 0.0830996
103 1 0.294964 0.273838 0.216158
235 1 0.455859 0.247507 0.188956
47 1 0.392077 0.389205 0.19909
169 1 0.373366 0.421676 0.021032
254 1 0.853011 0.156214 0.487252
35 1 0.495875 0.369605 0.0914256
129 1 0.595042 0.294708 0.178127
132 1 0.713007 0.396982 0.190179
128 1 0.638083 0.463409 0.0636564
197 1 0.558598 0.458479 0.220591
77 1 0.687059 0.304549 0.0438705
110 1 0.983497 0.271964 0.132332
50 1 0.973004 0.428087 0.0996776
184 1 0.870338 0.351208 0.197139
200 1 0.825737 0.39952 0.0515085
133 1 0.826713 0.493923 0.23988
317 2 0.21752 0.147112 0.241357
208 1 0.0334847 0.193662 0.268755
262 1 0.140099 0.137313 0.370483
307 2 0.0309089 0.0699467 0.352984
130 1 0.988735 0.170617 0.414894
112 1 0.256116 0.0462163 0.309605
97 1 0.296887 0.2151 0.371649
81 1 0.383187 0.0764789 0.394497
322 2 0.406768 0.25275 0.299983
80 1 0.440239 0.232601 0.424937
106 1 0.163844 0.258852 0.474394
151 1 0.846742 0.0158833 0.136507
99 1 0.505993 0.146846 0.321452
15 1 0.630298 0.0799529 0.358372
327 2 0.632391 0.24291 0.303109
226 1 0.740206 0.176842 0.38327
18 1 0.926399 0.0265979 0.425847
342 2 0.907891 0.268636 0.419274
270 1 0.538835 0.00847418 0.239347
337 2 0.325805 0.484474 0.273965
135 1 0.937402 0.0883054 0.256578
272 1 0.781117 0.110862 0.248497
355 2 0.84074 0.109819 0.358228
137 1 0.773411 0.00884374 0.39918
215 1 0.888315 0.232574 0.296372
93 1 0.0938106 0.435957 0.356034
227 1 0.159564 0.288722 0.327128
136 1 0.0343418 0.319252 0.448094
360 2 0.132915 0.38668 0.467415
333 2 0.0076006 0.464718 0.442346
162 1 0.257889 0.488262 0.387301
352 2 0.452865 0.495667 0.117354
194 1 0.453921 0.463895 0.334579
198 1 0.336242 0.353021 0.335291
85 1 0.663353 0.359255 0.335577
212 1 0.699079 0.45555 0.445016
118 1 0.510591 0.325946 0.314467
286 1 0.599835 0.238755 0.452752
285 1 0.555798 0.378359 0.450724
293 2 0.682869 0.32963 0.46107
328 2 0.418638 0.0252458 0.28046
125 1 0.92193 0.388209 0.358003
329 2 0.761704 0.312102 0.27947
230 1 0.796913 0.319283 0.411292
22 1 0.868667 0.466403 0.474663
323 2 0.525647 0.0087805 0.389478
338 2 0.590187 0.473661 0.344595
74 1 0.395786 0.393588 0.466378
20 1 0.0789567 0.0458292 0.498113
76 1 0.532359 0.0970037 0.489748
113 1 0.166744 0.155114 0.582859
302 2 0.177701 0.125778 0.70637
154 1 0.0529077 0.155232 0.701534
104 1 0.0213869 0.237162 0.579953
23 1 0.819226 0.434877 0.886386
304 2 0.490259 0.418004 0.549758
53 1 0.263772 0.0400632 0.642682
267 1 0.290567 0.209304 0.655023
9 1 0.46141 0.199155 0.690405
300 2 0.380451 0.0540449 0.680745
233 1 0.3841 0.117119 0.559434
134 1 0.509761 0.0484355 0.646674
218 1 0.937717 0.151369 0.979077
237 1 0.685942 0.0654047 0.667085
165 1 0.609471 0.184097 0.600194
195 1 0.723979 0.226727 0.702895
56 1 0.625155 0.0165822 0.963688
246 1 0.583013 0.12692 0.750617
309 2 0.762653 0.147666 0.601035
148 1 0.961175 0.0831733 0.586587
108 1 0.825245 0.079117 0.720857
24 1 0.879502 0.209964 0.660811
296 2 0.933028 0.130067 0.769577
190 1 0.0901688 0.485752 0.958119
140 1 0.789809 0.0835576 0.969577
211 1 0.149704 0.263975 0.717155
64 1 0.819094 0.0156187 0.578255
239 1 0.0997354 0.359374 0.603418
225 1 0.206848 0.401246 0.695025
289 2 0.206439 0.291896 0.609096
347 2 0.721565 0.403629 0.971794
182 1 0.261221 0.412402 0.547096
345 2 0.864774 0.310607 0.892155
214 1 0.371192 0.358946 0.664756
139 1 0.489912 0.289695 0.562964
278 1 0.505751 0.48711 0.824513
37 1 0.317954 0.269279 0.516838
251 1 0.527295 0.429325 0.676338
204 1 0.580437 0.292697 0.720357
116 1 0.630095 0.353979 0.576247
12 1 0.688608 0.41346 0.718263
94 1 0.889148 0.329926 0.548879
11 1 0.978153 0.325949 0.714898
158 1 0.740812 0.253985 0.542547
331 2 0.796551 0.32081 0.638626
186 1 0.879727 0.458795 0.7085
25 1 0.771964 0.427039 0.580924
320 2 0.779943 0.47379 0.77882
256 1 0.704169 0.324022 0.856272
314 2 0.130875 0.49267 0.620433
263 1 0.179259 0.189984 0.846748
13 1 0.042776 0.0988513 0.848911
356 2 0.0642235 0.233769 0.800285
222 1 0.182822 0.0829978 0.95987
255 1 0.298002 0.103552 0.780175
205 1 0.326153 0.144995 0.952321
330 2 0.410607 0.172503 0.834299
68 1 0.457673 0.054717 0.79846
122 1 0.462245 0.106961 0.946643
32 1 0.961805 0.414689 0.848924
250 1 0.343158 0.492169 0.75056
297 2 0.568017 0.0866645 0.864217
126 1 0.711302 0.0718061 0.831303
152 1 0.658736 0.172643 0.9451
298 2 0.651589 0.206987 0.829208
141 1 0.53535 0.22943 0.871313
1 1 0.0425458 0.494212 0.724804
124 1 0.172947 0.0186905 0.804555
58 1 0.80631 0.186033 0.852038
33 1 0.951307 0.244159 0.838066
257 1 0.887793 0.0443649 0.862936
161 1 0.983263 0.449153 0.579276
100 1 0.236185 0.274324 0.953313
349 2 0.0941327 0.374009 0.746763
348 2 0.171672 0.387822 0.949316
221 1 0.0922786 0.330869 0.872962
2 1 0.161556 0.462969 0.82724
313 2 0.205509 0.334761 0.821783
98 1 0.829805 0.321417 0.77162
163 1 0.972685 0.311715 0.982036
332 2 0.577902 0.376116 0.804607
138 1 0.312305 0.256982 0.802524
223 1 0.406325 0.291399 0.946228
172 1 0.445059 0.3471 0.798233
325 2 0.451025 0.420699 0.916161
168 1 0.298346 0.405251 0.868074
52 1 0.658196 0.466805 0.874301
59 1 0.562861 0.367056 0.953817
173 1 0.106884 0.0036656 0.657392
66 1 0.968809 0.0157322 0.741709
242 1 0.0963329 0.20863 0.991348
48 1 0.699235 0.0762824 0.511661
203 1 0.24334 0.491511 0.984376
91 1 0.824542 0.257947 0.994443
174 1 0.0374578 0.0279225 0.98578
261 1 0.185844 0.64447 0.151399
343 2 0.147469 0.579492 0.0555579
51 1 0.0411348 0.657962 0.250816
301 2 0.0797809 0.730541 0.133465
187 1 0.018639 0.613016 0.0998375
188 1 0.26424 0.641846 0.0107804
305 2 0.317824 0.655137 0.13843
65 1 0.393756 0.585976 0.0529291
30 1 0.412104 0.57039 0.217791
6 1 0.444699 0.704861 0.148678
44 1 0.293076 0.514314 0.138472
95 1 0.311818 0.748575 0.23744
119 1 0.0118871 0.950874 0.303619
170 1 0.547185 0.581061 0.125963
69 1 0.694055 0.616599 0.109049
157 1 0.595954 0.709768 0.2094
207 1 0.980499 0.508696 0.240848
5 1 0.673368 0.560765 0.261959
350 2 0.78674 0.604448 0.203381
275 1 0.88005 0.571769 0.109315
276 1 0.823195 0.713644 0.13108
291 2 0.937697 0.712934 0.177205
143 1 0.968163 0.750646 0.060235
60 1 0.451945 0.960269 0.00919455
28 1 0.116528 0.711933 0.00884767
16 1 0.176711 0.81755 0.103455
243 1 0.0166099 0.820714 0.212499
8 1 0.173537 0.904338 0.238165
10 1 0.0442266 0.876551 0.0293392
87 1 1.0002 0.973974 0.148153
36 1 0.471618 0.860797 0.483904
115 1 0.296474 0.913282 0.0275706
294 2 0.28512 0.85549 0.153762
29 1 0.745001 0.839602 0.355349
160 1 0.331976 0.768717 0.0685666
265 1 0.420703 0.856668 0.186282
264 1 0.47272 0.812157 0.0322208
201 1 0.696183 0.992853 0.226539
181 1 0.661872 0.780182 0.0878505
315 2 0.537894 0.789804 0.138613
196 1 0.578753 0.920177 0.113525
54 1 0.722835 0.942668 0.0739798
155 1 0.744606 0.845642 0.194734
290 2 0.365155 0.524357 0.463243
180 1 0.598278 0.862233 0.265942
34 1 0.887373 0.866537 0.141864
238 1 0.618974 0.931792 0.398344
274 1 0.875866 0.797386 0.279525
175 1 0.856054 0.955767 0.285539
258 1 0.135727 0.544852 0.252487
42 1 0.0739537 0.682873 0.475136
318 2 0.107869 0.640229 0.35393
271 1 0.117978 0.513254 0.490663
249 1 0.217863 0.661963 0.409628
248 1 0.991588 0.583395 0.381445
4 1 0.491 0.540795 0.481076
72 1 0.272354 0.607347 0.276626
101 1 0.810954 0.81191 0.0165828
229 1 0.4023 0.615532 0.372174
67 1 0.463777 0.752352 0.307025
210 1 0.501674 0.702737 0.460122
269 1 0.626158 0.730545 0.35314
78 1 0.533218 0.596072 0.303183
358 2 0.735572 0.696012 0.410566
114 1 0.643925 0.600901 0.441984
88 1 0.74832 0.705484 0.273639
149 1 0.882359 0.636923 0.273066
183 1 0.789362 0.570977 0.373913
341 2 0.892081 0.521747 0.345342
89 1 0.872756 0.704486 0.406638
232 1 0.012781 0.765061 0.364848
121 1 0.154124 0.753871 0.293855
166 1 0.0279351 0.903205 0.454317
189 1 0.184077 0.813593 0.44174
292 2 0.0925953 0.858091 0.320054
45 1 0.150346 0.964741 0.377416
144 1 0.311156 0.886615 0.31376
107 1 0.457362 0.906388 0.332774
43 1 0.33857 0.927324 0.446798
283 1 0.359791 0.768195 0.421162
228 1 0.868326 0.876474 0.427808
324 2 0.451711 0.973956 0.139581
308 2 0.541229 0.823769 0.384613
247 1 0.178137 0.987117 0.0945949
159 1 0.318232 0.98931 0.181758
105 1 0.551622 0.681094 0.0110546
70 1 0.618021 0.802306 0.494574
266 1 0.0871097 0.618417 0.613934
84 1 0.16577 0.747739 0.717366
92 1 0.254482 0.563141 0.549864
199 1 0.223109 0.723786 0.566575
3 1 0.947497 0.792122 0.908166
288 1 0.325871 0.65652 0.676582
354 2 0.467639 0.530724 0.709461
31 1 0.622618 0.507492 0.572706
311 2 0.638215 0.592103 0.999117
75 1 0.793217 0.593369 0.523693
73 1 0.505309 0.623856 0.606058
253 1 0.656929 0.66371 0.593099
147 1 0.612852 0.555711 0.723008
153 1 0.55592 0.724718 0.716925
202 1 0.706871 0.691601 0.746424
234 1 0.758301 0.558245 0.688683
46 1 0.83337 0.698875 0.650271
109 1 0.937952 0.591266 0.675648
62 1 0.944641 0.608055 0.520749
164 1 0.921469 0.5025 0.979329
123 1 0.391892 0.511258 0.610361
213 1 0.103574 0.821002 0.580055
282 1 0.194742 0.937492 0.5391
306 2 0.205458 0.939745 0.706601
273 1 0.0607702 0.866024 0.714872
357 2 0.286958 0.838506 0.518674
231 1 0.268432 0.84502 0.644686
117 1 0.399726 0.777411 0.589569
111 1 0.383235 0.942939 0.607232
252 1 0.333338 0.943163 0.748553
193 1 0.509559 0.86472 0.649787
335 2 0.530019 0.751763 0.58694
236 1 0.674889 0.824798 0.656001
303 2 0.721253 0.950227 0.619091
346 2 0.0378335 0.535321 0.847846
131 1 0.608592 0.956352 0.559248
191 1 0.765135 0.915478 0.747015
241 1 0.989365 0.732788 0.673018
299 2 0.864846 0.961388 0.685619
142 1 0.972792 0.919503 0.600585
244 1 0.825145 0.859645 0.617681
319 2 0.790122 0.792201 0.735512
14 1 0.93936 0.784439 0.531827
102 1 0.207324 0.564229 0.714881
206 1 0.0578439 0.642812 0.78683
61 1 0.156815 0.616563 0.890306
359 2 0.877155 0.909827 0.874597
316 2 0.259302 0.553472 0.844375
38 1 0.288208 0.683018 0.823273
171 1 0.432407 0.627724 0.779599
39 1 0.392776 0.700441 0.932383
179 1 0.371557 0.531078 0.906593
295 2 0.473075 0.606815 0.894449
127 1 0.904768 0.853908 0.743025
344 2 0.868062 0.518071 0.594457
167 1 0.698564 0.701812 0.955446
79 1 0.602911 0.614687 0.875703
209 1 0.756654 0.585886 0.851706
219 1 0.996735 0.643663 0.92851
192 1 0.84681 0.66864 0.969223
71 1 0.885321 0.705866 0.794002
55 1 0.910461 0.565373 0.838655
156 1 0.761693 0.536774 0.991212
287 1 0.0106263 0.935521 0.871163
336 2 0.00429321 0.783236 0.788947
185 1 0.105611 0.78349 0.862822
284 1 0.169716 0.92444 0.946021
260 1 0.229841 0.846275 0.80864
145 1 0.403583 0.783622 0.751685
57 1 0.243992 0.779358 0.942279
177 1 0.382646 0.860985 0.896316
334 2 0.467996 0.917583 0.765665
224 1 0.645123 0.832207 0.798814
340 2 0.658803 0.950703 0.853842
49 1 0.598701 0.965474 0.744136
82 1 0.528809 0.750591 0.865164
120 1 0.631585 0.854834 0.960329
178 1 0.522761 0.936338 0.877852
7 1 0.787705 0.800339 0.864014
40 1 0.764764 0.939429 0.927736
240 1 0.739637 0.892183 0.505227
83 1 0.365958 0.650567 0.518476
90 1 0.304109 0.995018 0.894519
26 1 0.759907 0.747589 0.527158
321 2 0.479717 0.996606 0.532569
277 1 0.525542 0.520814 0.969724
280 1 0.90964 0.945305 0.995176
ITEM: TIMESTEP
2000000
ITEM: NUMBER OF ATOMS
360
ITEM: BOX BOUNDS pp pp pp
0.0000000000000000e+00 6.6943295008216896e+00
0.0000000000000000e+00 6.6943295008216896e+00
0.0000000000000000e+00 6.6943295008216896e+00
ITEM: ATOMS id type xs ys zs
247 1 0.164727 0.168029 0.188968
91 1 0.0675286 0.05612 0.140176
45 1 0.0237329 0.223065 0.152837
323 2 0.0952858 0.0036839 0.253843
284 1 0.0645278 0.164427 0.00213784
205 1 0.285534 0.142594 0.0799136
96 1 0.433206 0.135498 0.0275597
270 1 0.471601 0.0951855 0.203704
54 1 0.404628 0.239864 0.148848
277 1 0.645381 0.489148 0.0286634
298 2 0.555538 0.0947449 0.0611642
268 1 0.644991 0.114782 0.157183
21 1 0.726666 0.161378 0.015407
235 1 0.553943 0.227126 0.221327
216 1 0.82815 0.337875 0.336018
348 2 0.659834 0.256046 0.160179
112 1 0.215958 0.0247831 0.160818
87 1 0.844201 0.0268924 0.0231
326 2 0.766376 0.082231 0.121826
17 1 0.908207 0.113897 0.170965
110 1 0.884665 0.188392 0.0311153
291 2 0.951841 0.0788792 0.0579684
222 1 0.78417 0.213228 0.148501
103 1 0.124314 0.392185 0.181063
44 1 0.227299 0.433752 0.0722811
132 1 0.890579 0.489135 0.394464
176 1 0.21563 0.281225 0.0961574
207 1 0.995107 0.386676 0.295964
318 2 0.00128056 0.46537 0.19371
30 1 0.349937 0.388259 0.152988
360 2 0.46351 0.344842 0.123822
86 1 0.0809575 0.326936 0.0287125
223 1 0.349297 0.285551 0.016133
337 2 0.38865 0.483074 0.23387
93 1 0.253235 0.481353 0.260021
203 1 0.493472 0.486968 0.14353
257 1 0.680594 0.0220335 0.025424
140 1 0.573466 0.222262 0.0628815
35 1 0.584772 0.36783 0.158138
150 1 0.732162 0.363956 0.209525
77 1 0.688896 0.31606 0.0404385
19 1 0.372022 -0.000246189 0.0954506
200 1 0.787557 0.464929 0.0944652
184 1 0.959331 0.387291 0.106222
317 2 0.835212 0.34068 0.129174
50 1 0.871325 0.449446 0.236502
119 1 0.90048 0.281642 0.218972
347 2 0.894034 0.478595 0.0308773
20 1 0.045638 0.127716 0.28195
189 1 0.189261 0.0578254 0.339746
245 1 0.10843 0.175545 0.424094
313 2 0.209093 0.191849 0.317604
148 1 0.0250256 0.0520985 0.460508
10 1 0.179344 0.0647668 0.0145975
81 1 0.30903 0.138896 0.243832
27 1 0.0662601 0.48344 0.0633842
285 1 0.288891 0.142034 0.414705
238 1 0.438689 0.0963279 0.35251
85 1 0.785191 0.417858 0.476821
99 1 0.595075 0.0869455 0.311359
15 1 0.707497 0.219797 0.295817
212 1 0.550291 0.231283 0.380457
286 1 0.669767 0.138729 0.438977
137 1 0.747187 0.0130796 0.39086
282 1 0.944951 0.242008 0.359248
34 1 0.782429 0.0830329 0.251234
292 2 0.841752 0.194327 0.27831
208 1 0.906738 0.0900565 0.351418
18 1 0.803162 0.190577 0.407338
144 1 0.263538 0.290488 0.262276
220 1 0.106763 0.26992 0.2957
262 1 0.0868252 0.335415 0.431742
354 2 0.132838 0.408233 0.334747
194 1 0.220436 0.445545 0.429563
97 1 0.236246 0.28764 0.431242
48 1 0.404587 0.24731 0.316154
169 1 0.47604 0.371844 0.26836
106 1 0.34371 0.390063 0.347826
327 2 0.352355 0.329737 0.471438
114 1 0.484791 0.366886 0.435934
307 2 0.954471 0.372062 0.412729
325 2 0.545088 0.479531 0.265582
129 1 0.615796 0.361576 0.311109
259 1 0.73668 0.470076 0.328802
136 1 0.687634 0.299981 0.440444
204 1 0.370414 0.461511 0.510047
80 1 0.427129 0.211218 0.467442
47 1 0.376867 0.452776 0.0140121
217 1 0.532721 0.37636 0.00616442
239 1 0.0650017 0.139441 0.586139
242 1 0.0744282 0.0671937 0.721888
113 1 0.207383 0.117464 0.647802
267 1 0.105739 0.227208 0.718558
289 2 0.205697 0.18481 0.501678
299 2 0.0649028 0.00533733 0.595812
214 1 0.557345 0.453179 0.877475
9 1 0.471991 0.170031 0.625489
117 1 0.323223 0.0474803 0.577201
198 1 0.355129 0.117647 0.720122
146 1 0.302519 0.224596 0.574695
272 1 0.478523 0.0617496 0.520352
233 1 0.506662 0.0265888 0.679516
165 1 0.614548 0.230255 0.686913
64 1 0.622915 0.104756 0.591478
331 2 0.747846 0.237134 0.678249
254 1 0.75997 0.200333 0.551883
130 1 0.946939 0.0458466 0.620145
98 1 0.96051 0.177294 0.682676
227 1 0.924354 0.158901 0.504106
58 1 0.769062 0.0999773 0.670583
228 1 0.7938 0.0482759 0.527737
329 2 0.222752 0.277603 0.682002
225 1 0.146055 0.272691 0.572725
271 1 0.132119 0.428972 0.54729
1 1 0.157189 0.38287 0.689182
186 1 0.00977738 0.449047 0.674788
104 1 1.0069 0.311888 0.617643
199 1 0.272656 0.377115 0.573126
182 1 0.35014 0.306298 0.717945
139 1 0.439053 0.31854 0.588122
330 2 0.369242 0.427609 0.656765
172 1 0.470102 0.418036 0.741293
11 1 0.978997 0.320673 0.766931
339 2 0.481505 0.293407 0.700036
226 1 0.716262 0.338045 0.588848
25 1 0.588523 0.248928 0.537635
234 1 0.588457 0.37822 0.654305
310 2 0.602482 0.304071 0.936416
31 1 0.485043 0.46963 0.603873
350 2 0.840793 0.420608 0.589286
230 1 0.858805 0.379762 0.845364
94 1 0.852672 0.300997 0.664983
161 1 0.968707 0.441672 0.528795
63 1 0.119799 0.0989527 0.861777
349 2 0.011261 0.158403 0.796782
218 1 0.950293 0.0925973 0.924915
297 2 0.815512 0.257066 0.914873
55 1 0.985924 0.422886 0.9493
312 2 0.20933 0.170745 0.802441
124 1 0.237361 0.0343413 0.790651
281 1 0.227713 0.184017 0.935164
263 1 0.344469 0.215783 0.856376
211 1 0.323417 0.0573887 0.936306
320 2 0.444948 0.106459 0.901301
134 1 0.482417 0.261865 0.911755
221 1 0.48781 0.172098 0.778292
309 2 0.676619 0.0706793 0.897552
122 1 0.565245 0.125388 0.931763
141 1 0.638019 0.106513 0.768545
138 1 0.693651 0.22796 0.858662
256 1 0.947876 0.255293 0.907896
195 1 0.851131 0.221634 0.785744
52 1 0.695371 0.486546 0.767958
152 1 0.798228 0.116831 0.892452
174 1 0.908004 0.0686145 0.770022
183 1 0.844889 0.452652 0.704716
32 1 0.0992486 0.263408 0.878286
314 2 0.144457 0.437726 0.977069
190 1 0.107603 0.419771 0.833856
2 1 0.228836 0.311528 0.801187
279 1 0.224611 0.343677 0.948655
250 1 0.29316 0.450166 0.768944
100 1 0.370447 0.368666 0.881862
116 1 0.572367 0.31958 0.806069
59 1 0.720947 0.338544 0.745842
68 1 0.708148 0.391935 0.900828
303 2 0.8676 -0.00373561 0.894742
24 1 0.893475 0.310162 0.506126
118 1 0.184245 0.0509502 0.503013
23 1 0.851301 0.357833 1.0002
12 1 0.716155 0.486857 0.618265
168 1 0.241075 0.498675 0.915199
57 1 0.415776 0.0168422 0.820874
215 1 0.613894 0.431879 0.507612