ITEM: TIMESTEP
0
ITEM: NUMBER OF ATOMS
360
ITEM: BOX BOUNDS pp pp pp
0.0000000000000000e+00 6.6943295008216896e+00
0.0000000000000000e+00 6.6943295008216896e+00
0.0000000000000000e+00 6.6943295008216896e+00
ITEM: ATOMS id type xs ys zs
39 1 0.0828608 0.0698883 0.0763183
201 1 0.0514027 0.189177 0.198667
112 1 0.187301 0.123983 0.186345
78 1 0.137913 0.202907 0.0608994
220 1 0.0628344 0.0362116 0.249159
148 1 0.472947 0.127338 0.173485
132 1 0.325667 0.0692742 0.210632
7 1 0.336184 0.200291 0.116745
196 1 0.277015 0.092279 0.0368627
356 2 0.445632 0.172994 0.056487
155 1 0.424605 0.045578 0.0356063
143 1 0.583824 0.00319454 0.0264629
213 1 0.638144 0.065413 0.184254
185 1 0.606062 0.194242 0.0733482
319 2 0.708395 0.115798 0.0898292
203 1 0.707299 0.20559 0.195201
282 1 0.984969 0.190923 0.0426586
4 1 0.774626 0.0705682 0.232692
33 1 0.927534 0.0813703 0.159402
253 1 0.853128 0.219523 0.146485
182 1 0.752633 0.239276 0.0311814
209 1 0.833853 0.1098 0.0496657
289 2 0.871444 0.239325 0.0221772
62 1 0.131621 0.368271 0.021783
198 1 0.181354 0.286202 0.17476
278 1 0.0164282 0.324721 0.119338
23 1 0.123914 0.45504 0.156034
284 1 0.435239 0.296382 0.0659063
95 1 0.415576 0.455488 0.0438276
118 1 0.259552 0.493449 0.0683985
42 1 0.314559 0.340648 0.206332
22 1 0.491845 0.402133 0.150995
111 1 0.269476 0.314763 0.0467838
233 1 0.455094 0.268287 0.244808
341 2 0.572982 0.255868 0.167613
254 1 0.650828 0.481111 0.141558
105 1 0.633576 0.344981 0.0859994
299 2 0.884996 0.390684 0.215629
235 1 0.76079 0.34439 0.17465
204 1 0.86686 0.364099 0.0707777
9 1 0.958875 0.467734 0.128452
269 1 0.801248 0.482814 0.141852
18 1 0.0595242 0.0317723 0.411158
122 1 0.199987 0.0598945 0.345455
41 1 0.179365 0.209564 0.310216
49 1 0.13745 0.164453 0.463247
64 1 0.037334 0.177248 0.354497
140 1 0.320974 0.198996 0.278886
5 1 0.351047 0.0541439 0.365944
181 1 0.307321 0.197147 0.432546
337 2 0.425263 0.114529 0.278777
99 1 0.457726 0.202563 0.388146
172 1 0.486962 0.0750557 0.460021
154 1 0.682666 0.0119337 0.326279
292 2 0.678201 0.216631 0.495023
339 2 0.706882 0.150996 0.318818
224 1 0.633028 0.116378 0.422464
171 1 0.57526 0.173665 0.292908
130 1 0.518591 0.0431604 0.308425
318 2 0.942591 0.10439 0.424862
40 1 0.922391 0.0569932 0.314095
17 1 0.795013 0.231648 0.306003
21 1 0.800247 0.114548 0.41134
96 1 0.899424 0.225963 0.429171
156 1 0.900844 0.000344344 0.484651
325 2 0.09094 0.299898 0.267409
13 1 0.0458992 0.337397 0.403647
197 1 0.19526 0.383901 0.283939
144 1 0.0345235 0.417708 0.257575
162 1 0.193279 0.310781 0.428192
183 1 0.120765 0.465644 0.475519
57 1 0.491191 0.352631 0.369055
217 1 0.402868 0.490777 0.36091
228 1 0.474189 0.482926 0.496879
303 2 0.287003 0.48155 0.283881
360 2 0.351607 0.450034 0.482732
324 2 0.43772 0.410145 0.264305
87 1 0.338302 0.340928 0.3656
211 1 0.254817 0.480987 0.404369
273 1 0.740714 0.452986 0.283249
205 1 0.631955 0.270414 0.37934
296 2 0.71595 0.327541 0.293643
227 1 0.59697 0.362469 0.255184
258 1 0.656824 0.423677 0.407407
53 1 0.810768 0.488563 0.457745
249 1 0.942669 0.284174 0.260427
50 1 0.866178 0.377001 0.348028
139 1 0.754852 0.304953 0.445424
100 1 0.973981 0.482781 0.422327
191 1 0.0456639 0.0724606 0.555079
102 1 0.231408 0.220327 0.576122
336 2 0.0770525 0.039298 0.691745
81 1 0.19601 0.0590678 0.640879
234 1 0.0234217 0.237787 0.53339
110 1 0.105664 0.186127 0.66601
127 1 0.371243 0.0515912 0.674517
245 1 0.381266 0.161 0.560543
346 2 0.458966 0.17237 0.677081
8 1 0.264659 0.17313 0.730701
266 1 0.27429 0.0552145 0.502561
257 1 0.504975 0.0717658 0.608539
119 1 0.543673 0.213004 0.562733
280 1 0.630054 0.146914 0.680038
333 2 0.740755 0.215848 0.696631
15 1 0.737153 0.115073 0.567598
343 2 0.731843 0.0602963 0.691166
342 2 0.60806 0.103029 0.543699
165 1 0.989482 0.120997 0.742569
344 2 0.939477 0.209335 0.651409
215 1 0.836312 0.129446 0.682068
231 1 0.950728 0.0126078 0.653511
126 1 0.906436 0.129121 0.548834
331 2 0.805386 0.199498 0.500215
347 2 0.0933174 0.303369 0.70351
277 1 0.216426 0.309761 0.702007
152 1 0.194627 0.480413 0.631083
84 1 0.110284 0.346844 0.582762
93 1 0.0750921 0.432357 0.719517
16 1 0.0163567 0.460518 0.582029
167 1 0.369654 0.274 0.657307
124 1 0.2556 0.381968 0.54166
340 2 0.317909 0.396569 0.666598
94 1 0.454369 0.399255 0.631503
3 1 0.432663 0.307535 0.500535
107 1 0.667621 0.290658 0.598413
270 1 0.704821 0.492961 0.695017
86 1 0.534428 0.275781 0.705377
313 2 0.602264 0.38922 0.654532
123 1 0.676733 0.318942 0.746973
180 1 0.712937 0.427036 0.55982
135 1 0.571858 0.376738 0.531879
98 1 0.82217 0.279818 0.600469
295 2 0.934527 0.473229 0.715146
288 1 0.852434 0.438587 0.619295
359 2 0.76008 0.368418 0.668781
207 1 0.962001 0.334328 0.667318
46 1 0.92272 0.358735 0.509576
26 1 0.141814 0.0748452 0.788777
237 1 0.246878 0.125359 0.889535
263 1 0.0627063 0.152763 0.908422
291 2 0.147056 0.204833 0.795101
218 1 0.146644 0.0153613 0.923829
305 2 0.394494 0.000128975 0.795631
28 1 0.414121 0.199145 0.793858
221 1 0.382815 0.08159 0.890147
88 1 0.361532 0.220577 0.949154
241 1 0.499003 0.0744277 0.763294
310 2 0.598074 0.0568741 0.874867
113 1 0.514841 0.134872 0.951002
251 1 0.68744 0.114611 0.952671
238 1 0.589696 0.187961 0.823049
229 1 0.64372 0.00155126 0.761669
259 1 0.808665 0.0281965 0.923696
230 1 0.755105 0.158087 0.813643
108 1 0.95205 0.0601621 0.938498
307 2 0.876438 0.0959463 0.80599
77 1 0.868748 0.179717 0.904654
52 1 0.0226763 0.468473 0.99202
252 1 0.00811675 0.262981 0.797169
338 2 0.167539 0.393229 0.785711
170 1 0.0715053 0.385325 0.877921
244 1 0.18603 0.259147 0.915544
83 1 0.229669 0.430133 0.898917
322 2 0.0701317 0.284318 0.955044
327 2 0.332647 0.362784 0.944413
214 1 0.401733 0.441685 0.873288
134 1 0.311544 0.335824 0.809549
219 1 0.28259 0.491298 0.777209
173 1 0.45854 0.308889 0.897059
308 2 0.435076 0.32897 0.760025
179 1 0.62578 0.316782 0.896888
216 1 0.546601 0.428095 0.979804
76 1 0.66699 0.453479 0.855903
315 2 0.534572 0.267694 0.983506
161 1 0.537683 0.40798 0.78832
206 1 0.727275 0.42498 0.990193
256 1 0.945537 0.323534 0.930812
175 1 0.856471 0.252315 0.765716
302 2 0.949718 0.37756 0.801726
239 1 0.78774 0.319257 0.878725
121 1 0.872453 0.45206 0.938358
43 1 0.813361 0.420387 0.771006
11 1 0.0362984 0.586455 0.201012
27 1 0.0314589 0.691693 0.0694865
159 1 0.135586 0.580791 0.0532501
330 2 0.0156308 0.566025 0.0742629
243 1 0.167229 0.719923 0.126193
188 1 0.00198224 0.734869 0.224953
268 1 0.219425 0.560472 0.208204
163 1 0.304803 0.696236 0.18821
306 2 0.262182 0.629159 0.076043
90 1 0.383717 0.616908 0.0592448
34 1 0.446661 0.641279 0.238603
164 1 0.372057 0.508037 0.194178
138 1 0.514579 0.547782 0.110937
71 1 0.68965 0.621638 0.0826119
115 1 0.5682 0.703547 0.0683132
141 1 0.589497 0.647081 0.207144
178 1 0.763235 0.602083 0.225462
236 1 0.896341 0.629784 0.126574
30 1 0.809525 0.720508 0.043423
326 2 0.87416 0.517979 0.0453064
293 2 0.0522963 0.790026 0.138082
190 1 0.0235785 0.928997 0.134565
355 2 0.243974 0.953072 0.00929705
248 1 0.167326 0.861976 0.0696393
63 1 0.1211 0.841163 0.234579
45 1 0.192461 0.981429 0.145223
61 1 0.415449 0.759938 0.12012
297 2 0.256042 0.84585 0.173273
38 1 0.472402 0.978518 0.167624
85 1 0.484811 0.875488 0.0417405
149 1 0.330112 0.935743 0.114395
2 1 0.395628 0.84159 0.233008
176 1 0.311728 0.811511 0.0327559
350 2 0.589737 0.960821 0.23276
195 1 0.695848 0.754128 0.16135
131 1 0.648682 0.864211 0.0467935
89 1 0.699418 0.900468 0.197093
267 1 0.545508 0.801471 0.180061
202 1 0.732145 0.996523 0.0692206
133 1 0.845182 0.766389 0.199006
353 2 0.79003 0.846518 0.104336
226 1 0.934039 0.816373 0.0876627
264 1 0.837386 0.940358 0.190659
210 1 0.883767 0.956833 0.0498333
103 1 0.0466996 0.727243 0.452249
146 1 0.11872 0.526191 0.313693
12 1 0.127597 0.679795 0.311052
25 1 0.184145 0.609879 0.452474
222 1 0.350323 0.581069 0.469904
169 1 0.303807 0.619788 0.325737
101 1 0.49954 0.613598 0.414354
323 2 0.436456 0.709769 0.48095
332 2 0.304112 0.691753 0.419128
166 1 0.427302 0.744441 0.343994
246 1 0.721946 0.687474 0.465035
250 1 0.597352 0.716119 0.369931
247 1 0.65426 0.571377 0.344852
29 1 0.73545 0.732759 0.312582
79 1 0.526175 0.500132 0.260478
54 1 0.640877 0.545328 0.497004
320 2 0.554161 0.501291 0.394724
168 1 0.883821 0.664604 0.485598
301 2 0.900723 0.659987 0.266432
194 1 0.909946 0.518577 0.270295
37 1 0.987426 0.624989 0.356882
91 1 0.816674 0.60494 0.36029
352 2 0.0452929 0.796612 0.343869
223 1 0.129394 0.892037 0.385321
348 2 0.151354 0.964564 0.27851
6 1 0.194962 0.782603 0.46861
69 1 0.274277 0.929482 0.431076
36 1 0.345992 0.8049 0.450355
147 1 0.270419 0.779685 0.315731
125 1 0.284454 0.934572 0.274749
294 2 0.410799 0.969471 0.280579
60 1 0.429544 0.91755 0.395275
157 1 0.539002 0.881062 0.30223
275 1 0.505365 0.808278 0.47847
317 2 0.635456 0.811352 0.271033
120 1 0.735793 0.97923 0.471936
279 1 0.683638 0.857875 0.380811
56 1 0.576037 0.948144 0.448893
109 1 0.832646 0.939315 0.356638
354 2 0.782421 0.853213 0.279946
193 1 0.804554 0.831928 0.471588
55 1 0.899042 0.768265 0.371959
272 1 0.967737 0.898559 0.276578
184 1 0.982922 0.885317 0.421989
309 2 0.932251 0.808684 0.498266
271 1 0.124082 0.686756 0.580957
316 2 0.117442 0.547742 0.566384
283 1 0.235316 0.610377 0.701366
70 1 0.075983 0.582561 0.68906
287 1 0.00873374 0.593528 0.512288
58 1 0.358641 0.725164 0.71926
242 1 0.439601 0.644654 0.598893
59 1 0.282861 0.694462 0.561632
321 2 0.359363 0.605724 0.695314
358 2 0.491012 0.634729 0.708691
150 1 0.439685 0.514473 0.730358
44 1 0.339953 0.51056 0.612408
357 2 0.251619 0.533497 0.524767
19 1 0.560137 0.526001 0.622715
117 1 0.672462 0.646692 0.667396
66 1 0.531777 0.745381 0.667412
104 1 0.58017 0.67246 0.540982
255 1 0.791736 0.585177 0.588195
312 2 0.80602 0.564582 0.720909
186 1 0.922337 0.575418 0.648808
208 1 0.948535 0.716267 0.612462
35 1 0.812716 0.701846 0.73139
345 2 0.895791 0.533611 0.53115
262 1 0.212144 0.7759 0.685811
67 1 0.138282 0.914416 0.724653
187 1 0.051547 0.837482 0.55219
1 1 0.14313 0.965483 0.518733
304 2 0.0226887 0.899398 0.645269
274 1 0.0504474 0.775838 0.692764
334 2 0.00768616 0.955925 0.526862
260 1 0.258768 0.904505 0.612542
145 1 0.415825 0.911265 0.712732
160 1 0.396428 0.804803 0.593529
314 2 0.306698 0.833981 0.743623
74 1 0.394582 0.973256 0.535721
129 1 0.675323 0.835952 0.686066
82 1 0.531526 0.887901 0.606986
351 2 0.533664 0.979499 0.690589
232 1 0.648984 0.989578 0.593478
300 2 0.741831 0.885417 0.567185
32 1 0.641811 0.818396 0.536578
73 1 0.807475 0.997409 0.612062
335 2 0.813541 0.870938 0.697475
114 1 0.787876 0.761016 0.601106
75 1 0.90706 0.878353 0.603394
189 1 0.242941 0.601463 0.916503
20 1 0.150701 0.696546 0.795265
116 1 0.172027 0.727177 0.971092
177 1 0.147456 0.527766 0.817818
349 2 0.140147 0.5086 0.949944
136 1 0.0666585 0.620497 0.917758
158 1 0.366329 0.612796 0.825546
240 1 0.490444 0.695804 0.818434
10 1 0.475894 0.581633 0.943262
151 1 0.419845 0.726423 0.959427
97 1 0.286861 0.745456 0.858138
290 2 0.558573 0.500651 0.873364
200 1 0.623798 0.562448 0.97379
24 1 0.586273 0.569133 0.77785
298 2 0.573432 0.641614 0.890786
106 1 0.725765 0.619493 0.821443
142 1 0.685665 0.708243 0.957078
92 1 0.642885 0.743194 0.80158
65 1 0.998616 0.50751 0.841499
153 1 0.977744 0.690735 0.791779
265 1 0.933582 0.611705 0.981029
192 1 0.866438 0.579523 0.830176
128 1 0.775009 0.578938 0.974071
174 1 0.826468 0.73142 0.8959
311 2 0.775919 0.505259 0.871319
47 1 0.0250323 0.928643 0.980636
328 2 0.0761425 0.811353 0.992714
31 1 0.195039 0.868294 0.92799
51 1 0.0618094 0.833067 0.838198
212 1 0.266516 0.965331 0.804411
261 1 0.34705 0.946305 0.941885
14 1 0.404157 0.823577 0.828536
285 1 0.66548 0.950876 0.897565
137 1 0.510964 0.973154 0.894305
329 2 0.694403 0.826988 0.913726
199 1 0.544734 0.878374 0.786743
80 1 0.555582 0.801745 0.922816
276 1 0.793501 0.857902 0.983874
281 1 0.798042 0.994114 0.77054
48 1 0.973133 0.756198 0.947253
72 1 0.895474 0.906393 0.884673
68 1 0.765781 0.850544 0.808479
225 1 0.919835 0.818957 0.755962
286 1 0.989643 0.982378 0.805796
ITEM: TIMESTEP
70000
ITEM: NUMBER OF ATOMS
360
ITEM: BOX BOUNDS pp pp pp
0.0000000000000000e+00 6.6943295008216896e+00
0.0000000000000000e+00 6.6943295008216896e+00
0.0000000000000000e+00 6.6943295008216896e+00
ITEM: ATOMS id type xs ys zs
344 2 0.147009 0.152079 0.0727694
39 1 0.117741 0.149003 0.207951
77 1 0.0196405 0.133775 0.0556821
132 1 0.14681 0.0239389 0.111008
140 1 0.285406 0.196162 0.0954084
122 1 0.269492 0.0883198 0.206249
42 1 0.458513 0.179993 0.172736
112 1 0.391105 0.0677046 0.0781707
130 1 0.424933 0.0491994 0.240004
355 2 0.271464 0.00122328 0.119449
148 1 0.563683 0.0798553 0.179144
329 2 0.689406 0.184787 0.164294
227 1 0.581336 0.24885 0.110504
4 1 0.692405 0.0335313 0.0869276
154 1 0.70464 0.079184 0.240825
235 1 0.732314 0.17334 0.0455986
113 1 0.528768 0.134591 0.0230815
201 1 0.983281 0.0682065 0.194043
17 1 0.807918 0.20176 0.17761
182 1 0.872071 0.0734761 0.088406
318 2 0.795402 0.0265904 0.171395
323 2 0.220863 0.492731 0.171405
256 1 0.099253 0.289546 0.0863195
237 1 0.244632 0.338858 0.140696
78 1 0.0907562 0.324206 0.234494
146 1 0.104163 0.450076 0.129309
164 1 0.243208 0.460367 0.0551896
356 2 0.364159 0.252297 0.19026
233 1 0.461238 0.341104 0.198306
127 1 0.421931 0.274526 0.0557721
138 1 0.394747 0.422465 0.0131852
163 1 0.346101 0.46959 0.168697
269 1 0.60878 0.462837 0.200467
91 1 0.702494 0.328004 0.192863
298 2 0.676362 0.411756 0.0850896
203 1 0.535422 0.401439 0.0740397
204 1 0.673718 0.313507 0.00750217
165 1 0.954272 0.263954 0.136095
206 1 0.760684 0.471639 0.0197931
188 1 0.778054 0.457944 0.161651
62 1 0.951135 0.427276 0.186923
278 1 0.821171 0.323426 0.0790132
118 1 0.975742 0.369357 0.0366894
75 1 0.23589 0.002743 0.469306
223 1 0.243073 0.249025 0.257802
266 1 0.214986 0.124496 0.35085
352 2 0.214704 0.170227 0.478464
215 1 0.0992801 0.229597 0.377267
18 1 0.0635871 0.0760883 0.345634
322 2 0.164951 0.0420457 0.269073
119 1 0.491783 0.0696082 0.489191
5 1 0.371197 0.18237 0.305172
69 1 0.338896 0.123506 0.440321
57 1 0.456772 0.220971 0.470332
348 2 0.421876 0.0462414 0.378635
56 1 0.582372 0.0125417 0.356116
172 1 0.512693 0.139101 0.342059
205 1 0.622172 0.208534 0.265354
334 2 0.608797 0.104921 0.443995
171 1 0.601506 0.229577 0.42819
220 1 0.727316 0.122151 0.410856
303 2 0.729106 0.239247 0.453897
96 1 0.979209 0.2142 0.448671
292 2 0.754139 0.228809 0.298686
282 1 0.842998 0.0952412 0.304335
41 1 0.967711 0.197309 0.294213
253 1 0.932955 0.0680431 0.418345
331 2 0.8577 0.158116 0.463692
87 1 0.0435808 0.474172 0.289411
304 2 0.105083 0.363659 0.361941
100 1 0.0570319 0.368956 0.475525
222 1 0.222476 0.409454 0.283611
13 1 0.225021 0.313046 0.412176
166 1 0.136698 0.484977 0.399098
49 1 0.286729 0.460929 0.423432
7 1 0.354855 0.34482 0.314874
337 2 0.463846 0.411826 0.315493
360 2 0.332743 0.255012 0.417369
181 1 0.442636 0.479466 0.422946
84 1 0.370469 0.362161 0.48826
320 2 0.58671 0.336872 0.256606
249 1 0.591626 0.424425 0.342394
228 1 0.529055 0.35572 0.47944
99 1 0.50111 0.290401 0.33196
247 1 0.702322 0.482096 0.424541
296 2 0.718048 0.431273 0.281308
101 1 0.70657 0.327171 0.363999
64 1 0.973093 0.350816 0.351079
144 1 0.843733 0.342078 0.256506
287 1 0.871115 0.498292 0.300395
139 1 0.839193 0.396461 0.419574
50 1 0.844099 0.251295 0.380645
313 2 0.935565 0.340103 0.470004
12 1 0.963601 0.491279 0.429718
245 1 0.216637 0.113726 0.594403
73 1 0.0885505 0.158623 0.669333
145 1 0.217756 0.0347016 0.718947
234 1 0.120344 0.241875 0.540931
1 1 0.0743566 0.0919228 0.520208
135 1 0.325813 0.187309 0.702648
240 1 0.463476 0.12387 0.698229
310 2 0.394198 0.169868 0.560883
82 1 0.362471 0.0588741 0.611892
102 1 0.296805 0.243784 0.546208
15 1 0.662062 0.0233493 0.517418
107 1 0.598101 0.180094 0.572562
21 1 0.745644 0.144759 0.571469
123 1 0.645716 0.0785765 0.692948
199 1 0.583664 0.217269 0.735996
156 1 0.819735 0.00917009 0.51553
345 2 0.862713 0.211596 0.654121
230 1 0.916406 0.117928 0.581049
229 1 0.828643 0.107395 0.720952
281 1 0.981907 0.0587044 0.732888
335 2 0.873349 0.00796989 0.636736
300 2 0.101451 0.479763 0.535213
74 1 0.208404 0.294076 0.676543
16 1 0.090903 0.405663 0.64878
312 2 0.0716637 0.288908 0.687751
126 1 0.206254 0.386406 0.54187
277 1 0.239554 0.444594 0.683749
124 1 0.471491 0.253052 0.619427
167 1 0.354554 0.349862 0.653094
94 1 0.496614 0.435412 0.618205
214 1 0.395864 0.487321 0.72311
219 1 0.348392 0.482726 0.574388
175 1 0.710384 0.279566 0.674694
258 1 0.676671 0.326929 0.525529
180 1 0.643844 0.416352 0.675147
351 2 0.591941 0.312959 0.626446
192 1 0.91206 0.489944 0.724626
311 2 0.786725 0.481444 0.684014
46 1 0.975537 0.2728 0.606585
186 1 0.940277 0.432134 0.569011
207 1 0.854244 0.352544 0.670972
98 1 0.83616 0.265825 0.535856
19 1 0.790109 0.435531 0.556227
349 2 0.0199471 0.237851 0.986919
196 1 0.145515 0.176795 0.956576
8 1 0.103358 0.0797772 0.809522
286 1 0.113791 0.0121712 0.951231
263 1 0.0136091 0.148006 0.888351
26 1 0.115737 0.238767 0.804185
149 1 0.248994 0.0760844 0.993308
134 1 0.256931 0.133344 0.844769
347 2 0.387571 0.134971 0.802926
218 1 0.389294 0.166679 0.940015
257 1 0.432324 0.249506 0.800272
155 1 0.425735 0.0257875 0.906658
137 1 0.35678 0.0133519 0.775894
241 1 0.51573 0.131043 0.85079
179 1 0.643502 0.0717641 0.93895
216 1 0.721297 0.158142 0.844664
299 2 0.624848 0.200275 0.947151
110 1 0.969315 0.231977 0.754665
302 2 0.761285 0.248268 0.93396
307 2 0.935957 0.055103 0.987009
239 1 0.79217 0.0351267 0.959837
105 1 0.876423 0.0922851 0.855942
252 1 0.879487 0.198001 0.988913
197 1 0.106302 0.48669 0.949459
288 1 0.00567231 0.378661 0.770756
221 1 0.0963756 0.32969 0.926595
244 1 0.15141 0.400015 0.801624
111 1 0.251018 0.417359 0.916958
88 1 0.280967 0.288755 0.816515
327 2 0.312153 0.411911 0.798775
308 2 0.377729 0.298424 0.945294
28 1 0.41862 0.393848 0.861568
198 1 0.254868 0.274602 0.968523
22 1 0.664186 0.307057 0.835701
284 1 0.523572 0.2765 0.936642
3 1 0.526836 0.364099 0.752674
254 1 0.632237 0.442206 0.934235
359 2 0.617557 0.426651 0.807797
315 2 0.512675 0.402359 0.949147
291 2 0.874951 0.39673 0.797766
43 1 0.822679 0.271621 0.795938
177 1 0.951851 0.455607 0.905567
76 1 0.75593 0.415641 0.780416
170 1 0.810712 0.363293 0.922872
93 1 0.939874 0.287537 0.888764
47 1 0.128877 0.720897 0.15674
52 1 0.138221 0.590299 0.0660059
189 1 0.239632 0.732628 0.0492798
48 1 0.0886394 0.731926 0.00845934
23 1 0.00395619 0.570413 0.1466
11 1 0.138288 0.57097 0.224083
226 1 0.00701752 0.699942 0.247756
27 1 0.279924 0.612995 0.150383
90 1 0.359904 0.570248 0.0388458
217 1 0.418056 0.652677 0.203243
273 1 0.49013 0.561903 0.107323
115 1 0.625874 0.723747 0.12191
53 1 0.600076 0.613568 0.204089
71 1 0.642761 0.554891 0.0587697
326 2 0.694507 0.667103 0.0288062
194 1 0.764196 0.616066 0.135796
236 1 0.917966 0.675911 0.0998098
328 2 0.871393 0.555655 0.182795
9 1 0.90072 0.500295 0.0616401
209 1 0.00287485 0.975227 0.0490711
108 1 0.135317 0.861808 0.0886231
294 2 0.0986104 0.825001 0.229697
190 1 0.0418832 0.933589 0.212272
210 1 0.00273167 0.810298 0.121362
243 1 0.211397 0.917732 0.216418
116 1 0.244103 0.914137 0.00730059
141 1 0.398502 0.755096 0.0847879
157 1 0.271668 0.766284 0.204027
306 2 0.291216 0.855377 0.0989021
176 1 0.360947 0.904926 0.193301
250 1 0.495463 0.794545 0.217238
261 1 0.393963 0.916047 0.0308905
143 1 0.546946 0.987474 0.043231
151 1 0.537901 0.829982 0.0567493
85 1 0.527584 0.930446 0.193226
89 1 0.668394 0.894627 0.115777
317 2 0.62884 0.787021 0.219689
354 2 0.645531 0.965518 0.22747
142 1 0.76335 0.765256 0.175097
38 1 0.763082 0.9161 0.245111
353 2 0.780922 0.92049 0.068083
289 2 0.876184 0.802764 0.123879
33 1 0.882076 0.92789 0.159495
202 1 0.773166 0.787147 0.0144758
162 1 0.214648 0.621358 0.406728
103 1 0.0605025 0.627949 0.374272
297 2 0.228592 0.664871 0.277551
25 1 0.107774 0.747112 0.47431
213 1 0.480226 0.531647 0.269177
61 1 0.324917 0.554901 0.295087
211 1 0.346725 0.600242 0.480046
346 2 0.296217 0.733959 0.464727
325 2 0.426617 0.593376 0.365375
183 1 0.337847 0.703417 0.32564
66 1 0.492839 0.694724 0.331435
242 1 0.503668 0.665559 0.478966
178 1 0.685296 0.717069 0.319298
34 1 0.602821 0.589621 0.364823
195 1 0.727609 0.558318 0.291018
168 1 0.699864 0.642836 0.471278
32 1 0.826546 0.722643 0.492881
133 1 0.835389 0.65697 0.267721
301 2 0.944967 0.590742 0.320807
246 1 0.835842 0.564338 0.424965
55 1 0.920843 0.716791 0.378982
330 2 0.788792 0.688945 0.375366
37 1 0.976123 0.639018 0.498265
293 2 0.00298587 0.957715 0.38943
248 1 0.162445 0.75909 0.3138
63 1 0.0123438 0.839488 0.346669
272 1 0.133651 0.93091 0.348794
59 1 0.111126 0.90186 0.498672
6 1 0.301338 0.993779 0.320281
60 1 0.386426 0.967124 0.464121
125 1 0.458034 0.918935 0.344496
350 2 0.397866 0.814955 0.30682
169 1 0.410746 0.802951 0.435339
147 1 0.273409 0.842779 0.361934
333 2 0.665549 0.912231 0.433849
2 1 0.62512 0.771454 0.466361
339 2 0.540363 0.80847 0.376789
267 1 0.628457 0.870151 0.318269
129 1 0.539669 0.907598 0.470653
45 1 0.905327 0.963452 0.304365
264 1 0.881645 0.81847 0.266151
40 1 0.75572 0.976232 0.373455
279 1 0.769458 0.826284 0.373489
109 1 0.890443 0.89315 0.445238
136 1 0.158966 0.623816 0.713135
208 1 0.0658549 0.692322 0.617623
65 1 0.0291111 0.553762 0.619162
70 1 0.21324 0.547854 0.556014
271 1 0.227342 0.707215 0.573443
357 2 0.213843 0.737566 0.712562
72 1 0.000586008 0.633694 0.744744
295 2 0.132449 0.509676 0.688598
321 2 0.110658 0.622446 0.507177
274 1 0.299129 0.603118 0.669651
152 1 0.398947 0.721102 0.565969
150 1 0.474714 0.593898 0.637119
44 1 0.492232 0.746207 0.683418
332 2 0.451636 0.54592 0.530564
161 1 0.707491 0.568017 0.60384
92 1 0.603364 0.678112 0.592239
104 1 0.577004 0.526828 0.519299
270 1 0.651369 0.696524 0.729016
68 1 0.747409 0.729898 0.612292
305 2 0.541924 0.632837 0.74341
340 2 0.579353 0.521506 0.677561
54 1 0.86712 0.568938 0.588328
51 1 0.904284 0.724382 0.634778
35 1 0.808839 0.617997 0.729251
260 1 0.153355 0.833145 0.63502
314 2 0.207069 0.94234 0.576051
184 1 0.0879752 0.979876 0.638856
158 1 0.344778 0.763948 0.698033
36 1 0.27861 0.851591 0.516276
255 1 0.452299 0.882481 0.605269
342 2 0.445983 0.970507 0.698559
160 1 0.315076 0.921136 0.653863
358 2 0.507083 0.773518 0.565167
174 1 0.605719 0.846546 0.640731
232 1 0.539199 0.996193 0.616227
343 2 0.643431 0.950321 0.722249
285 1 0.749176 0.838718 0.715922
224 1 0.744003 0.970041 0.649857
275 1 0.726273 0.871182 0.52881
114 1 0.994748 0.859368 0.689142
225 1 0.854382 0.937419 0.744598
120 1 0.858564 0.869142 0.602223
29 1 0.987096 0.817634 0.527143
193 1 0.968023 0.973743 0.543913
283 1 0.0752875 0.517744 0.803076
268 1 0.23779 0.578801 0.950267
159 1 0.134439 0.668329 0.883802
83 1 0.235903 0.528059 0.796321
10 1 0.363518 0.713436 0.934053
20 1 0.367637 0.555785 0.881662
24 1 0.409575 0.631811 0.76997
290 2 0.479191 0.62726 0.879873
58 1 0.273754 0.683246 0.808136
95 1 0.492251 0.524775 0.961036
117 1 0.487627 0.746407 0.851765
79 1 0.489583 0.672457 0.995668
341 2 0.711529 0.562362 0.944576
173 1 0.607088 0.616419 0.893475
200 1 0.676133 0.542922 0.767504
128 1 0.741373 0.68502 0.856265
86 1 0.52138 0.513884 0.811559
153 1 0.997754 0.616113 0.952483
265 1 0.893623 0.668624 0.853607
338 2 0.939855 0.557848 0.829873
309 2 0.824656 0.744936 0.763144
121 1 0.809715 0.532564 0.867789
30 1 0.813645 0.634263 0.990828
251 1 0.238988 0.983324 0.86649
336 2 0.0416265 0.768432 0.881856
67 1 0.0921482 0.761134 0.767602
81 1 0.10459 0.923235 0.789522
187 1 0.0557004 0.872499 0.948295
31 1 0.209789 0.80167 0.914512
262 1 0.239322 0.848704 0.77543
212 1 0.445186 0.867234 0.764666
14 1 0.352787 0.874226 0.888969
324 2 0.432044 0.81178 0.971237
280 1 0.536432 0.996486 0.787207
238 1 0.731376 0.997549 0.813807
106 1 0.627898 0.750086 0.963596
80 1 0.604676 0.857045 0.805457
131 1 0.501163 0.891716 0.914718
185 1 0.691845 0.917072 0.956509
316 2 0.962843 0.751857 0.753696
259 1 0.92591 0.759466 0.976084
191 1 0.980498 0.97913 0.875444
97 1 0.76747 0.833249 0.864253
276 1 0.885452 0.906035 0.987843
319 2 0.840831 0.94897 0.861365
231 1 0.928622 0.832165 0.83342
ITEM: TIMESTEP
140000
ITEM: NUMBER OF ATOMS
360
ITEM: BOX BOUNDS pp pp pp
0.0000000000000000e+00 6.6943295008216896e+00
0.0000000000000000e+00 6.6943295008216896e+00
0.0000000000000000e+00 6.6943295008216896e+00
ITEM: ATOMS id type xs ys zs
39 1 0.0722838 0.180625 0.212033
322 2 0.0954695 0.0487726 0.175752
263 1 0.159649 0.0980759 0.0679725
237 1 0.0950601 0.23824 0.0635216
5 1 0.22301 0.104962 0.223943
196 1 0.319599 0.125764 0.0956473
172 1 0.43879 0.213034 0.151989
344 2 0.224308 0.213479 0.0341847
130 1 0.465347 0.0432702 0.0628414
296 2 0.572008 0.358315 0.282151
148 1 0.581941 0.189278 0.055549
143 1 0.628178 0.0371629 0.0726966
42 1 0.525223 0.10064 0.202021
4 1 0.748963 0.174456 0.0335137
107 1 0.687402 0.169084 0.196946
45 1 0.010797 0.10042 0.0766581
179 1 0.866188 0.157283 0.139828
201 1 0.974493 0.0633957 0.227396
182 1 0.766238 0.0299336 0.138425
352 2 0.913338 0.188329 0.260853
328 2 0.904242 0.358247 0.275002
78 1 0.119288 0.363937 0.173442
288 1 0.206269 0.350269 0.0347346
165 1 0.0480945 0.379805 0.0371734
101 1 0.731991 0.476994 0.459078
127 1 0.214558 0.240103 0.156955
223 1 0.266542 0.423833 0.177932
256 1 0.342034 0.313065 0.0976862
140 1 0.448075 0.375007 0.225724
95 1 0.422943 0.444486 0.0921008
111 1 0.292122 0.47177 0.0169617
203 1 0.511601 0.32378 0.0165169
360 2 0.678172 0.256383 0.0954717
227 1 0.573698 0.289612 0.169493
338 2 0.543005 0.402292 0.12983
154 1 0.690156 0.372558 0.209173
239 1 0.87383 0.0814645 0.0039768
71 1 0.654536 0.356768 0.0212049
64 1 0.108241 0.487414 0.278423
84 1 0.265472 0.212564 0.500302
278 1 0.929993 0.238645 0.0266663
205 1 0.793099 0.311984 0.110547
252 1 0.970079 0.29835 0.178731
188 1 0.829535 0.450881 0.172879
206 1 0.983342 0.449812 0.186643
118 1 0.900173 0.403085 0.0448283
50 1 0.740223 0.306535 0.476798
17 1 0.810373 0.251861 0.265992
59 1 0.145569 0.122781 0.455498
18 1 0.0206498 0.148629 0.356444
294 2 0.014732 0.107512 0.501091
132 1 0.120019 0.0428973 0.308457
144 1 0.906914 0.266523 0.377914
245 1 0.262038 0.111053 0.370001
56 1 0.381113 0.116675 0.27377
7 1 0.330559 0.270258 0.254701
57 1 0.368866 0.22739 0.387735
220 1 0.633507 0.440616 0.343621
258 1 0.501117 0.25517 0.302191
171 1 0.800395 0.410231 0.324094
119 1 0.517185 0.105895 0.38989
334 2 0.591602 0.150927 0.29759
282 1 0.653205 0.0290535 0.248809
15 1 0.692829 0.115408 0.383672
303 2 0.800528 0.182688 0.37413
41 1 0.81085 0.0938118 0.275275
96 1 0.893 0.165001 0.490661
6 1 0.383296 0.0120373 0.394336
234 1 0.168552 0.224766 0.333375
1 1 0.0380008 0.237215 0.491434
292 2 0.870215 0.394683 0.432563
329 2 0.112569 0.446533 0.406795
228 1 0.20052 0.376946 0.308032
99 1 0.160705 0.328722 0.462275
126 1 0.0494603 0.317667 0.349802
273 1 0.334253 0.45818 0.309094
332 2 0.396235 0.349893 0.336401
249 1 0.491025 0.37955 0.397786
181 1 0.315494 0.371809 0.441176
12 1 0.981791 0.456717 0.362022
266 1 0.907925 0.024214 0.383219
340 2 0.617956 0.380997 0.470581
180 1 0.55683 0.259801 0.45981
91 1 0.673023 0.268951 0.343483
250 1 0.582182 0.477477 0.0344465
233 1 0.406927 0.494674 0.461772
82 1 0.0952102 0.0902744 0.641432
291 2 0.0896817 0.206662 0.701054
102 1 0.147796 0.261172 0.599184
145 1 0.23589 0.163342 0.683806
63 1 0.974127 0.177966 0.612112
336 2 0.2552 0.0270743 0.681395
88 1 0.258993 0.0686742 0.558746
277 1 0.3932 0.0257736 0.656235
94 1 0.410812 0.206871 0.638922
327 2 0.362085 0.127315 0.729731
131 1 0.132393 0.00879207 0.911531
135 1 0.51707 0.130164 0.706729
124 1 0.736351 0.156171 0.521569
28 1 0.665858 0.150682 0.666811
302 2 0.82933 0.354033 0.843063
359 2 0.648809 0.253972 0.558165
123 1 0.552072 0.126364 0.546046
161 1 0.431398 0.293056 0.517643
46 1 0.959898 0.122929 0.753763
21 1 0.842146 0.124586 0.645019
253 1 0.886445 0.302507 0.746188
193 1 0.810471 0.0255759 0.508999
192 1 0.00674686 0.314628 0.654172
16 1 0.149258 0.410824 0.641317
230 1 0.188714 0.28458 0.769449
70 1 0.260596 0.474588 0.558721
304 2 0.391396 0.4157 0.559422
136 1 0.292302 0.323059 0.611507
104 1 0.437698 0.371548 0.671428
2 1 0.280366 0.428975 0.711768
76 1 0.889743 0.450095 0.775975
257 1 0.565406 0.282093 0.644308
284 1 0.661342 0.378973 0.601199
247 1 0.51903 0.41261 0.545911
300 2 0.675566 0.290973 0.710242
197 1 0.757253 0.384069 0.729633
98 1 0.992257 0.480654 0.651391
218 1 0.773877 0.263066 0.631784
100 1 0.903635 0.321517 0.535245
138 1 0.429726 0.192459 0.99586
295 2 0.899306 0.390258 0.652323
19 1 0.800944 0.442117 0.593741
175 1 0.0303587 0.255137 0.802646
43 1 0.146203 0.200125 0.906866
73 1 0.129168 0.117112 0.792565
105 1 0.0114985 0.110943 0.924932
316 2 0.247237 0.167017 0.827126
155 1 0.252882 0.0980621 0.95011
185 1 0.477098 0.0115419 0.800767
134 1 0.293887 0.0494096 0.800945
74 1 0.432512 0.158555 0.846868
160 1 0.584549 0.230293 0.794903
240 1 0.634137 0.0501153 0.776842
241 1 0.567897 0.101932 0.921598
238 1 0.732306 0.0576276 0.934578
351 2 0.66284 0.144749 0.84889
113 1 0.652474 0.244053 0.925771
356 2 0.526833 0.226426 0.917696
219 1 0.0471171 0.421734 0.52045
216 1 0.774188 0.107205 0.789052
276 1 0.895902 0.204736 0.878886
8 1 0.880607 0.0126705 0.876324
262 1 0.946658 0.029484 0.569015
308 2 0.19302 0.41793 0.796613
93 1 0.95568 0.348703 0.907605
312 2 0.0264087 0.244573 0.932923
26 1 0.123224 0.355408 0.892828
110 1 0.0700152 0.408222 0.764925
354 2 0.777135 0.177268 0.913659
244 1 0.335703 0.263237 0.750622
221 1 0.46316 0.440477 0.940074
24 1 0.309233 0.399991 0.870266
198 1 0.303972 0.244633 0.907946
167 1 0.464897 0.315512 0.855837
299 2 0.475349 0.258816 0.732485
150 1 0.434475 0.457921 0.798308
353 2 0.390411 0.324076 0.969152
22 1 0.747831 0.25389 0.80719
3 1 0.584767 0.38517 0.76381
86 1 0.699308 0.403868 0.874459
315 2 0.579027 0.369905 0.911546
170 1 0.847366 0.453933 0.917189
204 1 0.801546 0.303218 0.946523
207 1 0.0115398 0.479412 0.883696
120 1 0.660523 0.0150415 0.524169
280 1 0.737613 0.016343 0.664589
319 2 0.162153 0.466823 0.989776
87 1 0.907625 0.493515 0.505668
298 2 0.765099 0.417432 0.999676