ITEM: TIMESTEP
0
ITEM: NUMBER OF ATOMS
360
ITEM: BOX BOUNDS pp pp pp
0.0000000000000000e+00 6.6943295008216896e+00
0.0000000000000000e+00 6.6943295008216896e+00
0.0000000000000000e+00 6.6943295008216896e+00
ITEM: ATOMS id type xs ys zs
93 1 0.168084 0.22671 0.218767
18 1 0.078698 0.137081 0.181294
303 2 0.246966 0.166076 0.230891
160 1 0.273291 0.210752 0.0898272
332 2 0.477518 0.0919428 0.135557
53 1 0.406494 0.247618 0.0830569
210 1 0.450172 0.212206 0.242593
38 1 0.360556 0.114183 0.17071
213 1 0.269434 0.01252 0.165773
230 1 0.543167 0.222033 0.135184
247 1 0.584739 0.0677269 0.0414095
342 2 0.618448 0.064909 0.22873
61 1 0.747511 0.0490404 0.0904782
251 1 0.679901 0.188837 0.10124
164 1 0.99679 0.208825 0.22514
37 1 0.815513 0.244869 0.11919
142 1 0.898581 0.1281 0.176896
182 1 0.870039 0.000319357 0.0194011
347 2 0.843336 0.15886 0.0330676
265 1 0.966847 0.187211 0.0890769
314 2 0.165175 0.358861 0.228003
227 1 0.0830253 0.397257 0.00373962
120 1 0.1936 0.350397 0.120608
104 1 0.202521 0.465851 0.21593
98 1 0.0706904 0.375555 0.225523
57 1 0.068929 0.285787 0.13037
274 1 0.0887958 0.480619 0.113081
313 2 0.181193 0.452905 0.00716952
112 1 0.312028 0.267896 0.225439
127 1 0.337131 0.444334 0.203329
8 1 0.428136 0.466744 0.107396
72 1 0.256901 0.32004 0.00752231
92 1 0.521687 0.391781 0.0627281
75 1 0.593685 0.344237 0.174917
188 1 0.727712 0.394527 0.0823913
192 1 0.508963 0.436646 0.241224
7 1 0.701389 0.273822 0.18567
290 2 0.888969 0.415806 0.113623
32 1 0.96264 0.350664 0.0232111
67 1 0.928851 0.311381 0.2049
266 1 0.816948 0.379732 0.180738
170 1 0.949974 0.476245 0.194758
275 1 0.129879 0.15729 0.466193
50 1 0.124841 0.0285346 0.403649
187 1 0.113707 0.0375687 0.271684
43 1 0.0264242 0.143608 0.406333
329 2 0.248262 0.0252001 0.411065
3 1 0.356531 0.198586 0.355499
270 1 0.406572 0.0844974 0.292357
184 1 0.381189 0.0579413 0.460973
201 1 0.262394 0.199983 0.43099
245 1 0.428885 0.235521 0.459684
219 1 0.528463 0.0990945 0.297397
271 1 0.555508 0.0819967 0.448566
107 1 0.714961 0.241333 0.429441
316 2 0.517158 0.165252 0.381136
56 1 0.671162 0.0906246 0.361933
102 1 0.645777 0.161809 0.261502
97 1 0.988609 0.0105812 0.373955
258 1 0.914274 0.217476 0.35
134 1 0.903681 0.0479665 0.294087
248 1 0.846009 0.133303 0.436272
259 1 0.800709 0.187191 0.26506
162 1 0.0148501 0.478611 0.355918
91 1 0.164186 0.29533 0.478549
301 2 0.174972 0.379873 0.386674
236 1 0.206278 0.268151 0.32956
167 1 0.0159279 0.344705 0.355282
337 2 0.140091 0.454091 0.444556
13 1 0.28143 0.486046 0.459127
47 1 0.260639 0.403753 0.314321
94 1 0.333279 0.359465 0.418361
288 1 0.446518 0.330516 0.315364
286 1 0.387437 0.450589 0.32977
129 1 0.620209 0.282372 0.336903
161 1 0.555719 0.363371 0.462495
58 1 0.62513 0.426712 0.292319
157 1 0.533905 0.466153 0.403708
196 1 0.705321 0.391771 0.44025
123 1 0.761561 0.41404 0.307747
239 1 0.869621 0.486761 0.310442
148 1 0.807883 0.299412 0.343484
40 1 0.891539 0.360552 0.398401
143 1 0.116519 0.244944 0.622368
330 2 0.202139 0.207942 0.710106
335 2 0.0873584 0.0925945 0.643944
23 1 0.172489 0.137197 0.596832
122 1 0.0634509 0.0343757 0.522404
17 1 0.218307 0.0341198 0.665001
253 1 0.303496 0.199933 0.544493
318 2 0.415821 0.095758 0.714177
42 1 0.454857 0.0242843 0.578316
344 2 0.389149 0.135029 0.571529
103 1 0.319953 0.159613 0.691738
85 1 0.490602 0.133366 0.635371
117 1 0.631955 0.173527 0.704136
349 2 0.737454 0.15247 0.542232
5 1 0.524211 0.179408 0.50994
222 1 0.6364 0.169938 0.571028
52 1 0.746413 0.00765654 0.688333
146 1 0.602749 0.0598822 0.622529
176 1 0.919831 0.226309 0.523537
172 1 0.878781 0.0528169 0.693789
357 2 0.841352 0.0347517 0.525561
339 2 0.899036 0.158536 0.645553
280 1 0.765985 0.179174 0.676373
118 1 0.995977 0.201482 0.712292
256 1 0.833378 0.119662 0.580414
293 2 0.974008 0.0683017 0.596085
226 1 0.0285803 0.287137 0.54451
111 1 0.0352531 0.413434 0.631971
155 1 0.155699 0.413177 0.662141
168 1 0.410026 0.251908 0.65924
278 1 0.447661 0.414368 0.652954
223 1 0.258359 0.280616 0.634858
90 1 0.365894 0.322567 0.556637
156 1 0.272337 0.408494 0.590446
10 1 0.324576 0.393486 0.712522
124 1 0.562019 0.361299 0.735444
128 1 0.642574 0.42538 0.591991
100 1 0.509316 0.300019 0.586137
240 1 0.678286 0.291754 0.701862
310 2 0.714337 0.288743 0.570898
89 1 0.815353 0.311572 0.687129
298 2 0.751831 0.410038 0.684539
300 2 0.853074 0.39009 0.533656
264 1 0.773343 0.484333 0.577966
323 2 0.876402 0.427536 0.704645
63 1 0.803958 0.287023 0.538505
132 1 0.984962 0.458502 0.503709
294 2 0.0521681 0.0376192 0.811727
76 1 0.127902 0.0886226 0.963409
151 1 0.246325 0.114845 0.784571
33 1 0.105702 0.227598 0.97408
273 1 0.0650374 0.162661 0.827981
334 2 0.337305 0.245112 0.757414
166 1 0.381108 0.124927 0.843975
60 1 0.262858 0.100828 0.969078
267 1 0.260986 0.222284 0.900844
224 1 0.473213 0.0660687 0.948306
296 2 0.36822 0.179647 0.961214
147 1 0.317471 0.000505222 0.835864
214 1 0.536363 0.132328 0.817924
150 1 0.668073 0.15497 0.966697
336 2 0.615779 0.0248848 0.858627
234 1 0.507384 0.195321 0.995447
45 1 0.864404 0.19897 0.788178
260 1 0.868842 0.0411368 0.90194
153 1 0.759155 0.117688 0.81537
345 2 0.982595 0.126973 0.906342
252 1 0.868926 0.160476 0.92109
16 1 0.99112 0.0202524 0.898162
281 1 0.185809 0.252607 0.809422
355 2 0.0685034 0.3372 0.867353
79 1 0.0754756 0.346975 0.762557
144 1 0.171185 0.426925 0.819405
141 1 0.443501 0.441921 0.948217
215 1 0.446754 0.47359 0.809472
246 1 0.287988 0.462243 0.998695
195 1 0.401782 0.284435 0.955725
359 2 0.289941 0.431006 0.861569
19 1 0.446401 0.258132 0.838497
74 1 0.719283 0.490432 0.976741
287 1 0.601722 0.461034 0.983881
145 1 0.597662 0.272382 0.848992
194 1 0.648858 0.396278 0.806931
352 2 0.723953 0.387179 0.899948
130 1 0.614422 0.298888 0.9886
115 1 0.750637 0.2958 0.813689
356 2 0.975577 0.401004 0.864165
186 1 0.935068 0.318501 0.762721
11 1 0.981859 0.456937 0.770936
326 2 0.757999 0.456516 0.795036
15 1 0.962832 0.259004 0.888918
309 2 0.833345 0.403314 0.996663
121 1 0.764401 0.260846 0.989257
199 1 0.19606 0.652938 0.0287451
255 1 0.199304 0.646326 0.197139
1 1 0.0600522 0.706775 0.224464
202 1 0.110099 0.575706 0.23405
360 2 0.0704387 0.622399 0.102641
225 1 0.306665 0.738546 0.18594
88 1 0.251182 0.549577 0.0889092
27 1 0.426421 0.558621 0.241281
338 2 0.259457 0.670247 0.102472
133 1 0.381013 0.585983 0.0766642
21 1 0.508303 0.578936 0.102075
321 2 0.583921 0.640133 0.081381
254 1 0.69896 0.542728 0.0882968
26 1 0.706962 0.665506 0.151813
163 1 0.612493 0.584669 0.191965
109 1 0.532579 0.68869 0.226046
36 1 0.517352 0.737204 0.0893243
169 1 0.873352 0.669545 0.244876
30 1 0.831481 0.701169 0.117895
315 2 0.768755 0.644581 0.0527076
179 1 0.956513 0.553841 0.0543697
77 1 0.827401 0.576554 0.142104
34 1 0.974548 0.716677 0.102428
65 1 0.244281 0.863806 0.170972
341 2 0.0999725 0.833492 0.222754
152 1 0.139167 0.75601 0.138969
39 1 0.0620052 0.985435 0.0481441
113 1 0.0667735 0.847622 0.0722813
340 2 0.123928 0.939852 0.141566
308 2 0.349947 0.900085 0.190635
211 1 0.483295 0.980099 0.132731
231 1 0.436865 0.794859 0.209579
137 1 0.345038 0.969125 0.0215118
319 2 0.303296 0.884895 0.0693247
244 1 0.417935 0.790142 0.0478679
312 2 0.666019 0.955156 0.0551949
324 2 0.550183 0.93173 0.219064
62 1 0.645234 0.777887 0.121194
203 1 0.522268 0.864314 0.142254
106 1 0.655304 0.974298 0.181351
358 2 0.644768 0.850999 0.201852
257 1 0.538301 0.942841 0.00897803
185 1 0.952645 0.80166 0.222514
237 1 0.879659 0.868696 0.123248
317 2 0.781077 0.874755 0.0510814
70 1 0.78404 0.81666 0.188224
24 1 0.230062 0.686531 0.370968
229 1 0.224546 0.539875 0.341471
12 1 0.126161 0.611897 0.368855
249 1 0.398355 0.681521 0.278578
235 1 0.325624 0.670897 0.477102
71 1 0.387376 0.595928 0.373466
302 2 0.408767 0.605122 0.496399
327 2 0.292586 0.645459 0.263391
87 1 0.671383 0.698732 0.33373
101 1 0.69334 0.695191 0.499995
282 1 0.713852 0.534901 0.435505
292 2 0.74221 0.74501 0.26022
49 1 0.533621 0.710286 0.48233
325 2 0.500837 0.732904 0.332902
268 1 0.571836 0.584108 0.475263
306 2 0.56671 0.654481 0.373021
206 1 0.531319 0.57263 0.321895
242 1 0.914753 0.552362 0.432376
283 1 0.918035 0.713409 0.353149
354 2 0.977258 0.706513 0.474064
82 1 0.806394 0.628557 0.375811
136 1 0.994188 0.595709 0.306606
78 1 0.760157 0.546926 0.264979
216 1 0.0351414 0.899145 0.279208
114 1 0.102037 0.77172 0.359892
135 1 0.0639061 0.895094 0.414547
250 1 0.198547 0.787397 0.266455
348 2 0.192014 0.943495 0.355101
276 1 0.294961 0.907266 0.355101
284 1 0.423443 0.939272 0.268298
14 1 0.381264 0.909748 0.486282
180 1 0.252224 0.830047 0.470137
291 2 0.295334 0.807896 0.29997
221 1 0.449543 0.991134 0.37776
66 1 0.511574 0.930315 0.468888
6 1 0.606632 0.977402 0.349296
99 1 0.681112 0.892496 0.28916
54 1 0.63216 0.899641 0.442775
198 1 0.73568 0.994947 0.481395
295 2 0.678886 0.805803 0.375276
80 1 0.517796 0.862682 0.334848
55 1 0.787983 0.763917 0.445774
138 1 0.903351 0.866946 0.327474
154 1 0.768633 0.894447 0.402778
299 2 0.806031 0.792298 0.342025
181 1 0.872981 0.963333 0.431947
81 1 0.799955 0.9904 0.261885
86 1 0.948495 0.838582 0.464473
289 2 0.000847541 0.609374 0.692044
269 1 0.220311 0.539145 0.679679
200 1 0.10388 0.654536 0.641569
311 2 0.0702969 0.540711 0.585023
64 1 0.237309 0.679302 0.718102
48 1 0.19021 0.531457 0.542967
165 1 0.0468207 0.605467 0.500946
217 1 0.150085 0.736972 0.500911
51 1 0.417098 0.733304 0.737224
41 1 0.324203 0.574721 0.605015
178 1 0.407769 0.688509 0.605687
110 1 0.432882 0.569156 0.681055
149 1 0.418566 0.502271 0.519827
177 1 0.60312 0.610981 0.744696
350 2 0.573143 0.510899 0.58787
44 1 0.569836 0.730247 0.737644
4 1 0.565038 0.694118 0.60184
220 1 0.700093 0.712854 0.63918
119 1 0.675389 0.533837 0.659338
174 1 0.912689 0.634346 0.552005
189 1 0.787723 0.550096 0.742022
159 1 0.853522 0.73477 0.693409
20 1 0.910599 0.532957 0.656993
29 1 0.796489 0.610295 0.621502
193 1 0.219294 0.968127 0.533866
126 1 0.0511441 0.751099 0.732647
305 2 0.163926 0.779834 0.612181
96 1 0.0286179 0.902297 0.616025
191 1 0.22991 0.876973 0.662854
190 1 0.0761799 0.94863 0.730881
307 2 0.131236 0.850721 0.502912
68 1 0.483464 0.978822 0.721391
25 1 0.27955 0.760392 0.587055
125 1 0.414145 0.853441 0.61084
95 1 0.376955 0.896377 0.746984
353 2 0.325991 0.80636 0.705847
73 1 0.350677 0.979971 0.636813
207 1 0.453265 0.801126 0.506472
197 1 0.549969 0.851764 0.627343
343 2 0.599468 0.977205 0.70835
333 2 0.632569 0.995516 0.535986
233 1 0.678665 0.856524 0.564219
297 2 0.648758 0.873954 0.69726
9 1 0.976326 0.763548 0.564979
351 2 0.939349 0.982529 0.513105
116 1 0.855399 0.853493 0.552706
173 1 0.120024 0.55188 0.96996
140 1 0.0777803 0.548214 0.788903
243 1 0.0641623 0.743381 0.853511
331 2 0.137644 0.695942 0.752954
158 1 0.165767 0.641378 0.862208
175 1 0.0210183 0.505814 0.915337
320 2 0.00737353 0.612771 0.901117
262 1 0.0114757 0.734374 0.979195
285 1 0.350527 0.605879 0.776633
108 1 0.269708 0.55816 0.873926
69 1 0.489917 0.642531 0.816266
22 1 0.303881 0.677336 0.938553
171 1 0.499833 0.562692 0.924226
279 1 0.441313 0.67833 0.95781
209 1 0.596064 0.749645 0.910865
205 1 0.620702 0.629421 0.981229
84 1 0.6837 0.711691 0.788816
272 1 0.694327 0.573239 0.851505
322 2 0.913744 0.523164 0.89378
31 1 0.922344 0.581838 0.781677
105 1 0.893979 0.656176 0.973322
241 1 0.751734 0.683521 0.938746
238 1 0.815117 0.543185 0.8831
83 1 0.813739 0.667821 0.80479
212 1 0.204454 0.786142 0.77195
183 1 0.183728 0.794143 0.927875
218 1 0.0970543 0.894963 0.936232
328 2 0.0504918 0.851847 0.830432
35 1 0.172173 0.95609 0.830592
131 1 0.22472 0.965866 0.977421
277 1 0.300078 0.830802 0.882038
139 1 0.479219 0.823691 0.895766
2 1 0.487926 0.962225 0.873026
346 2 0.318778 0.760996 0.810557
263 1 0.6939 0.950651 0.941143
261 1 0.60844 0.896587 0.806019
228 1 0.688946 0.815181 0.982473
46 1 0.724507 0.849648 0.785112
28 1 0.914482 0.773956 0.868058
232 1 0.953194 0.911996 0.873669
59 1 0.791614 0.797445 0.875023
208 1 0.78898 0.977842 0.82585
204 1 0.896546 0.876336 0.761412
304 2 0.933736 0.822564 0.96338
ITEM: TIMESTEP
10000
ITEM: NUMBER OF ATOMS
360
ITEM: BOX BOUNDS pp pp pp
0.0000000000000000e+00 6.6943295008216896e+00
0.0000000000000000e+00 6.6943295008216896e+00
0.0000000000000000e+00 6.6943295008216896e+00
ITEM: ATOMS id type xs ys zs
260 1 0.0754524 0.147481 0.225759
195 1 0.118392 0.176917 0.0702647
201 1 0.230547 0.138878 0.175648
328 2 0.0369347 0.0905558 0.110872
76 1 0.105386 0.0150686 0.0348094
53 1 0.417448 0.246779 0.165864
221 1 0.39038 0.0785048 0.144697
224 1 0.267469 0.0544197 0.0424834
141 1 0.375774 0.158543 0.0175711
75 1 0.509191 0.195745 0.025434
129 1 0.656548 0.150735 0.0598899
312 2 0.509926 0.123087 0.12859
112 1 0.583394 0.206075 0.188087
219 1 0.726411 0.161208 0.218447
36 1 0.560949 0.00117312 0.110918
62 1 0.607904 0.0771225 0.222892
259 1 0.950056 0.224069 0.032405
50 1 0.912344 0.140665 0.148911
294 2 0.785489 0.180426 0.112524
39 1 0.795624 0.0579978 0.103708
319 2 0.929943 0.0277124 0.215138
105 1 0.948265 0.00599001 0.0933902
79 1 0.227175 0.281443 0.0212947
148 1 0.068382 0.313496 0.0651
273 1 0.149542 0.296326 0.191762
246 1 0.135252 0.447358 0.0981007
33 1 0.0226172 0.422131 0.187601
160 1 0.2898 0.301878 0.147145
18 1 0.252056 0.45025 0.187809
296 2 0.307433 0.407534 0.0690772
316 2 0.386977 0.342546 0.239308
120 1 0.395902 0.418607 0.153907
72 1 0.391062 0.309264 0.035223
192 1 0.496844 0.484219 0.0705912
115 1 0.641134 0.414879 0.0131062
231 1 0.5328 0.440364 0.21041
92 1 0.537408 0.334874 0.0950592
286 1 0.639145 0.33534 0.203577
188 1 0.719938 0.287613 0.0768644
87 1 0.66401 0.47609 0.151632
163 1 0.819699 0.466394 0.107459
179 1 0.975915 0.483342 0.0607593
309 2 0.764673 0.361911 0.177005
78 1 0.874467 0.404473 0.233259
157 1 0.873848 0.313805 0.120324
40 1 0.990736 0.259281 0.200284
151 1 0.155358 0.228511 0.34438
176 1 0.0494815 0.144375 0.499993
60 1 0.183682 0.0759181 0.312786
23 1 0.204569 0.112538 0.480065
187 1 0.0283618 0.000295204 0.273797
113 1 0.107428 0.00315101 0.408553
6 1 0.468093 0.138807 0.270495
184 1 0.4177 0.0245203 0.420763
288 1 0.327661 0.20322 0.298896
325 2 0.332307 0.125108 0.440732
210 1 0.430352 0.21971 0.40106
271 1 0.351265 0.0469585 0.293117
324 2 0.668828 0.0290427 0.331617
106 1 0.569639 0.135211 0.387312
154 1 0.668476 0.22205 0.48013
97 1 0.740574 0.0813927 0.427697
318 2 0.515412 0.0202512 0.312593
196 1 0.851473 0.241854 0.254386
149 1 0.932376 0.239637 0.486509
102 1 0.815084 0.218198 0.395931
248 1 0.849624 0.105217 0.304029
63 1 0.922975 0.0939591 0.42957
226 1 0.994668 0.177675 0.345527
61 1 0.753158 0.00726042 0.253415
164 1 0.104882 0.369266 0.317071
43 1 0.0937975 0.290601 0.454711
38 1 0.206323 0.435175 0.422392
104 1 0.287353 0.268222 0.447357
270 1 0.257184 0.332886 0.295212
206 1 0.387372 0.485894 0.301204
94 1 0.379285 0.364084 0.385457
229 1 0.372484 0.467604 0.496656
54 1 0.514505 0.467188 0.360442
162 1 0.514521 0.295203 0.290713
49 1 0.657628 0.384272 0.440566
291 2 0.608691 0.371953 0.323054
41 1 0.525774 0.320005 0.43695
58 1 0.653847 0.252823 0.320683
47 1 0.667138 0.48081 0.309181
350 2 0.730641 0.480205 0.466513
310 2 0.87041 0.338964 0.39482
165 1 0.986881 0.402348 0.448443
240 1 0.974682 0.327747 0.327429
282 1 0.973535 0.498792 0.305908
185 1 0.83791 0.461857 0.392326
268 1 0.75594 0.348822 0.333152
253 1 0.242548 0.081837 0.64261
118 1 0.09228 0.159724 0.662972
236 1 0.174921 0.228046 0.562578
143 1 0.0785008 0.0249444 0.584841
245 1 0.234702 0.218101 0.694964
335 2 0.339733 0.146277 0.685956
172 1 0.391168 0.145858 0.541312
103 1 0.411129 0.236928 0.670284
344 2 0.49165 0.119622 0.619005
198 1 0.49132 0.0108519 0.553818
145 1 0.465585 0.107353 0.746729
337 2 0.306187 0.23247 0.57069
5 1 0.593491 0.170005 0.727416
146 1 0.611943 0.095686 0.549017
161 1 0.535416 0.217972 0.54972
124 1 0.689021 0.241418 0.650632
111 1 0.994103 0.0353795 0.721994
126 1 0.778995 0.041931 0.592069
222 1 0.953296 0.137317 0.620265
153 1 0.851544 0.246894 0.705995
56 1 0.798498 0.184323 0.542873
208 1 0.840715 0.0557222 0.725988
345 2 0.0232125 0.257214 0.559218
223 1 0.101692 0.324262 0.654019
275 1 0.194288 0.406922 0.73193
3 1 0.117165 0.401926 0.53256
167 1 0.268052 0.362635 0.567745
301 2 0.350343 0.441982 0.621923
168 1 0.341683 0.352158 0.73346
13 1 0.411651 0.316244 0.535587
194 1 0.46719 0.393837 0.674929
107 1 0.596148 0.343522 0.57322
235 1 0.529387 0.450161 0.520048
90 1 0.717619 0.456763 0.6047
342 2 0.536609 0.286097 0.672662
295 2 0.614512 0.388426 0.693997
242 1 0.860564 0.460522 0.542364
91 1 0.963954 0.455427 0.724292
132 1 0.950769 0.349875 0.587675
155 1 0.990022 0.27282 0.743086
128 1 0.821751 0.38338 0.685395
306 2 0.994717 0.472218 0.558655
71 1 0.783398 0.32979 0.533587
347 2 0.0148782 0.223324 0.869307
257 1 0.0344518 0.127849 0.961783
252 1 0.0986709 0.115015 0.830086
330 2 0.154394 0.117546 0.965087
234 1 0.257378 0.0891961 0.787908
8 1 0.467963 0.135766 0.882835
343 2 0.386336 0.0371661 0.804641
117 1 0.354628 0.201227 0.810398
171 1 0.35894 0.0364752 0.924101
166 1 0.25967 0.16629 0.918002
230 1 0.508874 0.0477182 0.992272
130 1 0.64734 0.178044 0.890816
263 1 0.569177 0.0492439 0.860118
283 1 0.690562 0.0578114 0.788268
228 1 0.690579 0.0393907 0.98001
287 1 0.78817 0.19843 0.988582
261 1 0.761393 0.202574 0.803209
83 1 0.795749 0.0687117 0.878948
251 1 0.891978 0.204248 0.869117
323 2 0.958891 0.126406 0.785854
305 2 0.909646 0.0761172 0.982396
73 1 0.132445 0.262219 0.783499
232 1 0.118661 0.250426 0.926653
311 2 0.079668 0.400455 0.75418
281 1 0.181098 0.383432 0.878194
88 1 0.226549 0.475892 0.999423
16 1 0.0180697 0.407337 0.876413
334 2 0.260942 0.271925 0.798403
359 2 0.422656 0.41063 0.826459
74 1 0.485822 0.389547 0.940646
215 1 0.325815 0.331788 0.903735
313 2 0.434279 0.265691 0.928703
45 1 0.48549 0.292513 0.797501
156 1 0.28698 0.480457 0.834845
27 1 0.374256 0.46574 0.986093
177 1 0.546056 0.44401 0.797499
186 1 0.628814 0.296843 0.79542
352 2 0.744942 0.347503 0.782176
37 1 0.741427 0.337825 0.902964
7 1 0.599353 0.28802 0.946775
339 2 0.619824 0.397063 0.902251
21 1 0.706772 0.472115 0.766169
67 1 0.741582 0.488991 0.925287
15 1 0.91063 0.368455 0.981921
326 2 0.884116 0.497475 0.932515
238 1 0.871837 0.362738 0.826209
34 1 0.119409 0.737002 0.12579
57 1 0.0833651 0.549006 0.215262
30 1 0.00564007 0.695699 0.238704
290 2 0.0518027 0.641335 0.13496
108 1 0.166626 0.588071 0.0731569
170 1 0.174016 0.661774 0.23743
348 2 0.2105 0.743389 0.00127058
10 1 0.419366 0.625646 0.0185183
255 1 0.44508 0.631653 0.161979
274 1 0.284765 0.684569 0.0930022
93 1 0.332615 0.539635 0.113411
338 2 0.2794 0.585389 0.00792267
65 1 0.324797 0.709808 0.224812
249 1 0.606702 0.615311 0.11261
358 2 0.684389 0.598337 0.221979
340 2 0.52348 0.736427 0.158396
341 2 0.73942 0.732983 0.225145
205 1 0.529283 0.710929 0.0156194
314 2 0.705665 0.530323 0.038946
169 1 0.991006 0.648227 0.0220039
123 1 0.916269 0.567902 0.172976
32 1 0.775278 0.611096 0.142695
355 2 0.894503 0.667518 0.101453
265 1 0.841991 0.588069 0.0143356
216 1 0.162089 0.999531 0.179788
308 2 0.21491 0.943703 0.0478438
137 1 0.061193 0.907865 0.133293
207 1 0.189594 0.857388 0.167815
277 1 0.130918 0.858624 0.0149928
225 1 0.302614 0.834286 0.0499572
250 1 0.419318 0.810487 0.144844
336 2 0.466186 0.819594 0.0445317
211 1 0.416917 0.949248 0.0624105
80 1 0.461935 0.941923 0.205089
213 1 0.301416 0.950944 0.171993
254 1 0.697542 0.75641 0.0922583
109 1 0.628427 0.766291 0.242991
70 1 0.707249 0.939896 0.0995026
209 1 0.583659 0.850445 0.117892
26 1 0.868047 0.75495 0.174248
199 1 0.965031 0.790918 0.0539806
241 1 0.768372 0.866876 0.244574
139 1 0.830398 0.837434 0.0641322
182 1 0.913016 0.898007 0.197024
300 2 0.0816142 0.5047 0.412204
202 1 0.208829 0.691792 0.383377
114 1 0.0812567 0.616573 0.35712
258 1 0.199746 0.537012 0.313559
98 1 0.33478 0.581981 0.404878
292 2 0.362225 0.596098 0.263302
302 2 0.47346 0.665941 0.325769
66 1 0.361372 0.732099 0.373692
24 1 0.491012 0.591067 0.43958
203 1 0.552888 0.568768 0.267095
42 1 0.594027 0.687197 0.353057
351 2 0.664549 0.660821 0.460061
138 1 0.73477 0.652461 0.323874
12 1 0.79224 0.526111 0.266273
262 1 0.973825 0.73515 0.416057
131 1 0.890146 0.627285 0.320951
239 1 0.957007 0.567802 0.457588
266 1 0.79617 0.580153 0.467291
303 2 0.142299 0.939035 0.279966
307 2 0.147481 0.79379 0.260857
134 1 0.00523665 0.829905 0.316458
190 1 0.146554 0.847673 0.416619
135 1 0.243435 0.872595 0.302183
327 2 0.358575 0.831894 0.262269
197 1 0.470057 0.75322 0.455416
329 2 0.427691 0.91349 0.484949
127 1 0.491427 0.790774 0.283751
284 1 0.264391 0.983109 0.407005
14 1 0.438674 0.897147 0.364229
217 1 0.295786 0.844721 0.452347
142 1 0.734755 0.906555 0.378849
297 2 0.591027 0.81791 0.361661
99 1 0.598535 0.9136 0.265591
299 2 0.71508 0.801261 0.336988
233 1 0.560437 0.973497 0.416997
82 1 0.622561 0.774433 0.473173
349 2 0.973567 0.958624 0.40786
357 2 0.894074 0.756696 0.297464
353 2 0.913207 0.845722 0.454015
181 1 0.884202 0.941402 0.329241
81 1 0.838783 0.960547 0.474156
86 1 0.823862 0.757633 0.393359
159 1 0.0412268 0.741729 0.662362
140 1 0.0297867 0.602558 0.739818
212 1 0.159693 0.650318 0.636629
136 1 0.00283125 0.611235 0.592891
346 2 0.229559 0.548974 0.720297
354 2 0.0885343 0.555348 0.531919
48 1 0.0984188 0.505983 0.647945
200 1 0.215822 0.546541 0.511336
243 1 0.101252 0.678889 0.500419
110 1 0.313426 0.603295 0.62416
278 1 0.464631 0.573768 0.5931
25 1 0.423391 0.710425 0.63194
180 1 0.292303 0.704674 0.504519
220 1 0.388727 0.505055 0.718792
333 2 0.398067 0.647313 0.514097
285 1 0.583165 0.500555 0.666273
4 1 0.566134 0.681657 0.579135
218 1 0.722589 0.673392 0.598289
64 1 0.502927 0.620493 0.732965
189 1 0.616913 0.719155 0.737678
119 1 0.630968 0.549307 0.52605
289 2 0.992367 0.734921 0.543988
264 1 0.754438 0.613334 0.742578
9 1 0.862243 0.540971 0.654935
175 1 0.888684 0.683793 0.689009
116 1 0.850166 0.704695 0.540668
122 1 0.0298945 0.874982 0.531157
96 1 0.158361 0.799522 0.604159
191 1 0.0358275 0.891723 0.683742
276 1 0.18854 0.943949 0.532615
183 1 0.16239 0.82737 0.745547
52 1 0.156799 0.986388 0.726412
178 1 0.274692 0.753171 0.67664
147 1 0.268731 0.911296 0.663151
193 1 0.332862 0.988708 0.546816
125 1 0.378476 0.834643 0.584325
214 1 0.407745 0.970679 0.694928
95 1 0.553208 0.98727 0.709513
44 1 0.646462 0.793977 0.614393
204 1 0.702878 0.94218 0.684237
68 1 0.520052 0.838284 0.709312
85 1 0.533335 0.869793 0.542608
46 1 0.682974 0.946522 0.522796
293 2 0.892428 0.794128 0.74975
55 1 0.765568 0.826714 0.507566
17 1 0.905732 0.828121 0.628538
256 1 0.782145 0.794763 0.694387
280 1 0.90627 0.975353 0.595035
321 2 0.791503 0.905151 0.598236
69 1 0.188567 0.684327 0.784822
158 1 0.225431 0.58995 0.899797
356 2 0.000208197 0.521572 0.844058
1 1 0.115481 0.677424 0.943067
144 1 0.122972 0.519978 0.819718
227 1 0.0912198 0.529352 0.965017
19 1 0.415012 0.538298 0.867336
269 1 0.324216 0.627784 0.77174
272 1 0.434193 0.690887 0.854997
51 1 0.321688 0.728088 0.937571
133 1 0.583816 0.517585 0.935083
298 2 0.627871 0.581778 0.757711
174 1 0.610109 0.658576 0.872811
315 2 0.502652 0.614945 0.915928
11 1 0.688547 0.645586 0.997542
320 2 0.74109 0.616275 0.883346
31 1 0.993383 0.644746 0.863347
20 1 0.839968 0.692264 0.830065
100 1 0.865659 0.549561 0.81831
173 1 0.839472 0.726038 0.965089
77 1 0.0096039 0.790319 0.811523
35 1 0.0581286 0.936791 0.833901
360 2 0.0730761 0.839035 0.91345
2 1 0.197124 0.983764 0.920544
22 1 0.20209 0.819016 0.888738
332 2 0.298335 0.926442 0.949503
331 2 0.289143 0.773499 0.813957
279 1 0.421042 0.838317 0.928855
101 1 0.383493 0.823174 0.755851
244 1 0.455997 0.938881 0.834128
267 1 0.289281 0.923488 0.82034
59 1 0.689658 0.892469 0.957093
150 1 0.643754 0.905916 0.827463
247 1 0.539905 0.918472 0.952743
29 1 0.723248 0.785123 0.840878
121 1 0.547025 0.803467 0.860103
317 2 0.598098 0.797995 0.975936
84 1 0.901734 0.838637 0.890204
28 1 0.830934 0.976474 0.991058
152 1 0.991382 0.926423 0.984991
237 1 0.900063 0.92294 0.755647
304 2 0.777171 0.935613 0.795652
322 2 0.98402 0.751118 0.946046
89 1 0.927902 0.989217 0.877176
