ITEM: TIMESTEP
0
ITEM: NUMBER OF ATOMS
360
ITEM: BOX BOUNDS pp pp pp
0.0000000000000000e+00 6.6943295008216896e+00
0.0000000000000000e+00 6.6943295008216896e+00
0.0000000000000000e+00 6.6943295008216896e+00
ITEM: ATOMS id type xs ys zs
218 1 0.109382 0.134699 0.198524
169 1 0.0455057 0.105896 0.0478869
198 1 0.190426 0.143001 0.0334035
180 1 0.163772 0.0104762 0.103823
128 1 0.0204396 0.234423 0.145323
300 2 0.0463346 0.033755 0.152905
233 1 0.259018 0.074413 0.224159
157 1 0.261549 0.209242 0.153652
166 1 0.40225 0.0910874 0.164538
105 1 0.352847 0.166007 0.0259826
359 2 0.471194 0.00634 0.115678
54 1 0.473552 0.0832561 0.00724139
171 1 0.521511 0.229694 0.0772698
209 1 0.68181 0.073774 0.0157833
120 1 0.681321 0.235283 0.0909375
232 1 0.584393 0.231463 0.216759
264 1 0.735712 0.124144 0.178576
62 1 0.574609 0.0949848 0.151189
279 1 0.960362 0.233233 0.0155995
331 2 0.92634 0.142386 0.0818801
259 1 0.945175 0.10672 0.213983
219 1 0.8564 0.231548 0.171274
297 2 0.773554 0.0278037 0.0939901
17 1 0.81471 0.144284 0.0386297
281 1 0.925723 0.0078201 0.0904135
334 2 0.241169 0.263947 0.0360983
360 2 0.145025 0.274082 0.150687
191 1 0.105935 0.275642 0.0128028
60 1 0.0568508 0.392591 0.090499
177 1 0.223969 0.375656 0.133593
316 2 0.358355 0.41857 0.169035
253 1 0.383222 0.318501 0.110998
41 1 0.47321 0.370213 0.227089
92 1 0.442454 0.489386 0.0868764
3 1 0.273299 0.484773 0.236374
222 1 0.568485 0.389246 0.105487
238 1 0.69949 0.379359 0.019184
155 1 0.630726 0.385487 0.249289
237 1 0.82854 0.305448 0.036709
243 1 0.872483 0.497104 0.136446
8 1 0.76745 0.36189 0.165725
111 1 0.921516 0.358345 0.130062
273 1 0.996764 0.473753 0.209158
296 2 0.784566 0.470897 0.0450467
356 2 0.977271 0.358828 0.00205996
112 1 0.022377 0.0159107 0.451426
258 1 0.180079 0.207014 0.452551
288 1 0.154241 0.109528 0.349174
307 2 0.0119483 0.0436423 0.324887
26 1 0.0141983 0.171636 0.31729
246 1 0.432677 0.231869 0.256826
329 2 0.365253 0.12168 0.286947
245 1 0.279784 0.209972 0.325824
51 1 0.314312 0.0459399 0.388347
133 1 0.411169 0.176583 0.399533
337 2 0.445423 0.00992551 0.451587
196 1 0.46482 0.0558844 0.304546
178 1 0.723913 0.245917 0.265699
167 1 0.635954 0.065575 0.281726
214 1 0.533539 0.101083 0.431097
40 1 0.694146 0.193231 0.41043
265 1 0.724196 0.00915815 0.395198
298 2 0.923111 0.244376 0.27473
251 1 0.844956 0.191799 0.351071
89 1 0.889396 0.0310592 0.363616
59 1 0.971957 0.152898 0.469776
1 1 0.0165315 0.332327 0.264764
110 1 0.153133 0.407655 0.299303
53 1 0.150788 0.258977 0.27842
118 1 0.0911821 0.470475 0.45118
136 1 0.249408 0.447048 0.412515
275 1 0.0880134 0.320017 0.401983
338 2 0.244903 0.315769 0.377183
49 1 0.308096 0.332202 0.260266
303 2 0.339828 0.449536 0.3343
221 1 0.397391 0.337093 0.369462
18 1 0.339762 0.271974 0.485223
229 1 0.448424 0.490605 0.398543
230 1 0.710928 0.48212 0.368873
96 1 0.56753 0.417474 0.446939
349 2 0.516522 0.417681 0.331917
319 2 0.688671 0.410888 0.491968
154 1 0.551797 0.275548 0.358329
247 1 0.702297 0.339337 0.378865
240 1 0.868263 0.344307 0.298984
43 1 0.812917 0.279977 0.492572
130 1 0.848062 0.437831 0.442992
305 2 0.755319 0.419624 0.274371
143 1 0.952096 0.285601 0.418638
50 1 0.973855 0.461334 0.360155
64 1 0.209859 0.0724043 0.710987
19 1 0.0672411 0.116696 0.571684
348 2 0.0394154 0.0448654 0.678867
207 1 0.0861042 0.165984 0.711808
87 1 0.24869 0.231772 0.609804
139 1 0.236317 0.0929864 0.532244
306 2 0.436267 0.042524 0.693912
170 1 0.398602 0.114394 0.53949
172 1 0.346038 0.129566 0.672459
52 1 0.506883 0.148178 0.650764
320 2 0.597386 0.249197 0.663583
228 1 0.627125 0.138634 0.539079
66 1 0.696536 0.1855 0.674065
213 1 0.690111 0.0358832 0.643183
285 1 0.523085 0.0197879 0.570415
277 1 0.564637 0.0139971 0.724277
63 1 0.515511 0.242232 0.516148
323 2 0.653291 0.0131594 0.509204
312 2 0.803539 0.201552 0.59293
261 1 0.775798 0.10174 0.51501
182 1 0.952858 0.197085 0.635209
90 1 0.836589 0.129715 0.702924
145 1 0.910314 0.0325436 0.589203
272 1 0.935393 0.00450156 0.737176
257 1 0.0631637 0.269153 0.539005
327 2 0.145371 0.293388 0.64938
102 1 0.0759637 0.410775 0.607693
345 2 0.210762 0.477381 0.533253
25 1 0.214345 0.411758 0.658539
85 1 0.195857 0.353416 0.531557
97 1 0.435863 0.387519 0.511338
342 2 0.31095 0.396312 0.567475
234 1 0.396934 0.271196 0.627845
215 1 0.378653 0.438533 0.673193
301 2 0.301482 0.324002 0.705693
299 2 0.701456 0.345706 0.660247
212 1 0.533808 0.348176 0.61566
239 1 0.613302 0.463991 0.624448
173 1 0.66058 0.300419 0.554583
293 2 0.569421 0.407597 0.746285
256 1 0.993669 0.327338 0.705264
131 1 0.92949 0.34739 0.561691
184 1 0.811665 0.302503 0.687429
216 1 0.776521 0.419058 0.585342
224 1 0.877507 0.438366 0.703431
266 1 0.965591 0.488525 0.526705
236 1 0.207651 0.240273 0.759463
346 2 0.131307 0.0411255 0.964697
123 1 0.0770165 0.0140748 0.839327
35 1 0.217452 0.0534543 0.88463
94 1 0.103401 0.176392 0.878274
185 1 0.362322 0.0461363 0.916789
315 2 0.293398 0.123447 0.802629
284 1 0.448524 0.111188 0.795677
226 1 0.260331 0.202504 0.907086
107 1 0.444809 0.217928 0.910048
269 1 0.359843 0.234649 0.778917
187 1 0.32436 0.00498127 0.779132
294 2 0.679962 0.0391578 0.797831
14 1 0.575228 0.020846 0.895915
106 1 0.599478 0.147772 0.796134
255 1 0.724095 0.245902 0.929563
295 2 0.582524 0.24983 0.859202
68 1 0.57971 0.169525 0.957892
252 1 0.869054 0.201303 0.882866
341 2 0.750703 0.180062 0.786737
15 1 0.750475 0.107726 0.882437
129 1 0.966543 0.150137 0.789521
350 2 0.874617 0.0624076 0.831016
146 1 0.96583 0.0914726 0.931724
159 1 0.8371 0.00890799 0.959733
114 1 0.0332933 0.426906 0.914543
144 1 0.00266125 0.283543 0.875842
140 1 0.157145 0.329027 0.889708
353 2 0.19196 0.448331 0.867839
86 1 0.113696 0.41279 0.77085
292 2 0.093476 0.271326 0.784225
332 2 0.177393 0.396563 0.99986
74 1 0.43433 0.399076 0.808358
161 1 0.281345 0.389724 0.80314
119 1 0.301233 0.354399 0.981052
179 1 0.463235 0.362426 0.981375
101 1 0.717258 0.450184 0.75013
83 1 0.589219 0.375805 0.872738
5 1 0.677594 0.28243 0.786795
11 1 0.507832 0.271486 0.756283
313 2 0.601514 0.286632 0.994636
113 1 0.82654 0.351584 0.843281
355 2 0.895328 0.263023 0.775014
270 1 0.755684 0.45939 0.907793
304 2 0.944105 0.392148 0.820708
31 1 0.887051 0.442418 0.982238
16 1 0.0978145 0.643494 0.041512
220 1 0.102742 0.645117 0.197735
34 1 0.241512 0.633339 0.141595
47 1 0.138167 0.50474 0.14242
147 1 0.393744 0.639693 0.108519
24 1 0.416148 0.522282 0.235935
335 2 0.313045 0.610138 0.247851
125 1 0.340311 0.72855 0.219658
103 1 0.296322 0.50836 0.0808637
202 1 0.721048 0.505795 0.170921
235 1 0.560958 0.560245 0.166079
339 2 0.725802 0.589013 0.0530537
135 1 0.654629 0.672432 0.120805
153 1 0.626095 0.511583 0.0221844
80 1 0.501317 0.726881 0.141891
244 1 0.527222 0.626129 0.0201774
75 1 0.997103 0.522759 0.0397641
351 2 0.870258 0.749282 0.00862437
142 1 0.830264 0.630953 0.158757
271 1 0.958649 0.680623 0.0765636
328 2 0.970893 0.587853 0.146108
181 1 0.0828817 0.887659 0.138316
193 1 0.18255 0.774768 0.20351
340 2 0.0790239 0.761258 0.126137
158 1 0.24108 0.914959 0.187703
67 1 0.118037 0.793253 0.0118746
22 1 0.262202 0.784462 0.0677958
241 1 0.395823 0.854672 0.122458
278 1 0.316947 0.994934 0.0747146
311 2 0.507903 0.866685 0.0680876
56 1 0.589799 0.767736 0.024956
283 1 0.576762 0.971274 0.0581864
267 1 0.613655 0.8342 0.155547
42 1 0.684622 0.976853 0.16473
99 1 0.522962 0.937339 0.204775
274 1 0.977171 0.78367 0.198797
318 2 0.86225 0.768625 0.133118
7 1 0.760918 0.764217 0.0459829
23 1 0.967443 0.831277 0.0569007
333 2 0.86112 0.877244 0.216106
262 1 0.953099 0.948871 0.240611
39 1 0.820431 0.90063 0.0956474
38 1 0.759829 0.800269 0.212321
48 1 0.807437 0.989404 0.227666
78 1 0.136146 0.548426 0.337776
175 1 0.0410683 0.633964 0.428209
45 1 0.204197 0.607248 0.482248
210 1 0.218473 0.68249 0.311503
197 1 0.0761061 0.741339 0.313966
32 1 0.453564 0.660443 0.289763
30 1 0.323523 0.587914 0.373128
12 1 0.433347 0.646451 0.469521
186 1 0.581924 0.530868 0.311825
9 1 0.589922 0.722117 0.263271
250 1 0.577065 0.594578 0.438766
206 1 0.715532 0.625104 0.269667
314 2 0.68248 0.665623 0.473952
199 1 0.685619 0.73592 0.368755
322 2 0.906497 0.569218 0.363022
174 1 0.975971 0.622103 0.265798
290 2 0.918771 0.737224 0.416511
57 1 0.772051 0.604673 0.413772
268 1 0.840032 0.723628 0.314425
100 1 0.901899 0.617303 0.47985
122 1 0.836523 0.520422 0.274939
204 1 0.0473512 0.877262 0.479648
149 1 0.109427 0.981315 0.258277
330 2 0.0781448 0.856488 0.257315
195 1 0.129443 0.75533 0.454518
109 1 0.171939 0.975329 0.442488
302 2 0.065863 0.92276 0.358847
188 1 0.180472 0.855272 0.337085
291 2 0.234086 0.97224 0.307262
205 1 0.34788 0.752373 0.371157
357 2 0.299383 0.83945 0.284129
65 1 0.464726 0.920662 0.361188
211 1 0.457804 0.814953 0.26448
2 1 0.316432 0.893901 0.415276
124 1 0.370466 0.952114 0.258646
309 2 0.697512 0.868253 0.416368
326 2 0.578257 0.996765 0.381248
6 1 0.575811 0.913669 0.480866
79 1 0.536326 0.79266 0.389801
151 1 0.627974 0.903979 0.315878
82 1 0.80964 0.880819 0.333916
4 1 0.90215 0.914154 0.477275
93 1 0.962657 0.834749 0.348477
81 1 0.803101 0.793859 0.4592
248 1 0.0861855 0.581241 0.568801
227 1 0.127134 0.649691 0.71764
162 1 0.17985 0.725236 0.602117
352 2 0.133888 0.514389 0.659154
115 1 0.254558 0.564972 0.616825
280 1 0.405696 0.6425 0.616532
344 2 0.285324 0.677139 0.651585
168 1 0.341378 0.512428 0.506717
126 1 0.300594 0.703442 0.51671
176 1 0.605177 0.645814 0.576672
165 1 0.69851 0.593217 0.697425
152 1 0.67152 0.746109 0.688882
217 1 0.50206 0.510749 0.552418
325 2 0.537083 0.73981 0.503879
192 1 0.699021 0.540257 0.521677
46 1 0.537531 0.563988 0.695472
108 1 0.998896 0.519915 0.693442
276 1 0.980535 0.749986 0.523403
321 2 0.886216 0.580673 0.727463
127 1 0.947585 0.643847 0.628466
194 1 0.822039 0.684395 0.723227
208 1 0.761174 0.682999 0.575913
20 1 0.822299 0.557661 0.617577
69 1 0.237767 0.845881 0.521015
98 1 0.134049 0.966497 0.589531
324 2 0.118138 0.840139 0.600094
77 1 0.074553 0.91802 0.735645
254 1 0.0279654 0.763998 0.654849
37 1 0.172999 0.814412 0.717077
58 1 0.25635 0.926784 0.657707
132 1 0.452108 0.908439 0.672972
29 1 0.368203 0.7842 0.653278
44 1 0.359365 0.963203 0.545105
84 1 0.435615 0.826877 0.505415
225 1 0.518557 0.75338 0.619169
164 1 0.660118 0.792672 0.534821
358 2 0.742548 0.833699 0.637909
203 1 0.619378 0.884806 0.651518
287 1 0.747031 0.918803 0.525198
13 1 0.982184 0.901941 0.612071
223 1 0.836091 0.924875 0.663321
231 1 0.872606 0.789597 0.624296
286 1 0.924459 0.847701 0.749893
160 1 0.219031 0.529479 0.758677
91 1 0.15246 0.709067 0.89171
310 2 0.216222 0.582928 0.872719
28 1 0.0848499 0.559047 0.829808
249 1 0.15674 0.520028 0.98793
289 2 0.492129 0.609504 0.84096
76 1 0.262474 0.708975 0.770011
201 1 0.358559 0.66006 0.879611
242 1 0.372711 0.568211 0.753255
134 1 0.469482 0.51111 0.931821
138 1 0.448229 0.707192 0.757614
21 1 0.301387 0.50631 0.904458
308 2 0.39173 0.591302 0.990541
141 1 0.25635 0.648245 0.992818
33 1 0.40144 0.744824 0.998368
317 2 0.722139 0.69748 0.79892
71 1 0.601983 0.533852 0.851988
88 1 0.591035 0.67328 0.785654
10 1 0.686526 0.634086 0.936981
36 1 0.509543 0.719482 0.90393
116 1 0.908222 0.514442 0.839955
163 1 0.987849 0.630783 0.937621
73 1 0.971952 0.667643 0.790411
72 1 0.820206 0.696255 0.878661
27 1 0.772865 0.579116 0.822451
117 1 0.836961 0.586479 0.997444
183 1 0.0660494 0.952445 0.996091
347 2 0.039048 0.795883 0.793592
343 2 0.198201 0.964993 0.764065
55 1 0.234799 0.915671 0.963666
95 1 0.131061 0.8589 0.867083
263 1 0.454027 0.95207 0.821277
354 2 0.429572 0.814561 0.882841
70 1 0.382822 0.892671 0.975049
189 1 0.275669 0.791569 0.912921
104 1 0.333969 0.856758 0.791001
190 1 0.541269 0.820016 0.785776
61 1 0.665437 0.765927 0.892955
148 1 0.531467 0.875407 0.931191
156 1 0.654697 0.914054 0.814017
150 1 0.698887 0.917018 0.967231
200 1 0.822701 0.846087 0.916192
121 1 0.794592 0.976672 0.799276
282 1 0.945164 0.947662 0.875003
137 1 0.771036 0.816106 0.783152
336 2 0.925842 0.924744 0.994047
260 1 0.985244 0.781416 0.901095
ITEM: TIMESTEP
50000
ITEM: NUMBER OF ATOMS
360
ITEM: BOX BOUNDS pp pp pp
0.0000000000000000e+00 6.6943295008216896e+00
0.0000000000000000e+00 6.6943295008216896e+00
0.0000000000000000e+00 6.6943295008216896e+00
ITEM: ATOMS id type xs ys zs
107 1 0.119017 0.176688 0.111768
346 2 0.186899 0.0405644 0.099275
177 1 0.0147254 0.463606 0.30974
331 2 0.0527124 0.26648 0.171326
183 1 0.188424 0.243983 0.228425
279 1 0.998931 0.281462 0.0343631
308 2 0.414998 0.474717 0.0369829
149 1 0.186735 0.0881363 0.232224
143 1 0.747 0.285805 0.355479
105 1 0.308957 0.084114 0.128094
68 1 0.420855 0.18813 0.0879163
166 1 0.440106 0.0750361 0.209077
119 1 0.28117 0.23954 0.0889242
26 1 0.904514 0.292836 0.467662
283 1 0.667072 0.0609066 0.114556
8 1 0.697737 0.218616 0.138294
351 2 0.557564 0.107356 0.175611
238 1 0.57427 0.186907 0.0588412
241 1 0.525429 0.0380881 0.0725189
60 1 0.018027 0.428619 0.0430106
265 1 0.963049 0.165591 0.138775
17 1 0.822938 0.0933036 0.119393
356 2 0.830663 0.184372 0.202758
7 1 0.602226 0.477773 0.0140797
110 1 0.0917677 0.380607 0.211364
253 1 0.157865 0.323205 0.0910007
118 1 0.241354 0.396293 0.235073
316 2 0.278711 0.371459 0.0942265
78 1 0.354877 0.465307 0.15676
222 1 0.370165 0.292398 0.215229
284 1 0.415755 0.348596 0.0662578
335 2 0.441902 0.386498 0.189921
154 1 0.510443 0.221062 0.213214
186 1 0.715678 0.429091 0.321118
153 1 0.547321 0.355965 0.138279
202 1 0.695762 0.368168 0.0781841
235 1 0.512272 0.45277 0.267772
244 1 0.292635 0.470865 0.0140827
155 1 0.617945 0.341506 0.280679
120 1 0.845054 0.252502 0.092642
129 1 0.947879 0.326331 0.195926
243 1 0.776532 0.337855 0.201069
240 1 0.873243 0.457393 0.144404
330 2 0.963152 0.420179 0.407326
285 1 0.40398 0.0573708 0.504355
288 1 0.0390128 0.0535373 0.346632
1 1 0.168243 0.153249 0.375328
259 1 0.0538795 0.19519 0.272459
178 1 0.515636 0.142352 0.361757
44 1 0.389907 0.2066 0.428676
51 1 0.287905 0.0294015 0.393565
171 1 0.331097 0.154579 0.287367
327 2 0.278734 0.144429 0.438744
320 2 0.412757 0.0669712 0.35629
99 1 0.602861 0.0366473 0.268519
23 1 0.926374 0.0318573 0.226428
3 1 0.175269 0.484094 0.126414
251 1 0.636894 0.185583 0.27933
167 1 0.707002 0.0799483 0.406784
40 1 0.760392 0.0686296 0.260017
192 1 0.83569 0.424988 0.452452
300 2 0.0753587 0.0936947 0.20103
43 1 0.821573 0.166028 0.452158
53 1 0.88077 0.143012 0.308082
145 1 0.901067 0.0236142 0.422219
323 2 0.888844 0.270119 0.33469
133 1 0.996038 0.171285 0.420121
135 1 0.640546 0.487279 0.169144
275 1 1.00987 0.311694 0.357604
360 2 0.138242 0.275131 0.349828
50 1 0.873428 0.38891 0.315664
257 1 0.160216 0.395996 0.36157
18 1 0.249784 0.402843 0.475539
250 1 0.597274 0.390976 0.419171
219 1 0.281809 0.287141 0.358034
136 1 0.371187 0.42421 0.308752
41 1 0.48762 0.295475 0.339672
63 1 0.40977 0.374645 0.443121
20 1 0.079808 0.467888 0.453285
245 1 0.212741 0.261079 0.487364
247 1 0.627801 0.217713 0.442419
175 1 0.0624364 0.297185 0.492379
246 1 0.561058 0.0130177 0.414001
169 1 0.0552493 0.038007 0.0956969
322 2 0.0213118 0.478858 0.175116
281 1 0.941907 0.100294 0.00965411
111 1 0.851745 0.386081 0.0196336
295 2 0.17545 0.215206 0.00784017
236 1 0.265442 0.187772 0.717374
344 2 0.127286 0.110398 0.665378
207 1 0.132109 0.238986 0.626926
19 1 0.987492 0.165568 0.717193
184 1 0.799691 0.294929 0.874706
229 1 0.695355 0.435734 0.533763
307 2 0.0183552 0.18535 0.548748
92 1 0.145636 0.457797 0.969526
172 1 0.324331 0.175171 0.574298
22 1 0.369981 0.0814451 0.695072
58 1 0.407383 0.25576 0.702887
354 2 0.451881 0.496208 0.830242
173 1 0.511389 0.181709 0.63648
132 1 0.507582 0.0243016 0.634685
239 1 0.625819 0.126451 0.705696
228 1 0.754085 0.0936744 0.626967
11 1 0.63117 0.0990267 0.555629
5 1 0.6478 0.246057 0.600443
294 2 0.563447 0.233306 0.750371
66 1 0.897855 0.143692 0.592404
190 1 0.845118 0.0956393 0.740235
292 2 0.78709 0.229928 0.611486
256 1 0.0810875 0.278641 0.768836
25 1 0.11986 0.392745 0.597788
299 2 0.0751419 0.461951 0.714511
305 2 0.86345 0.0260132 0.561281
144 1 0.795886 0.424828 0.781896
341 2 0.701008 0.493315 0.823356
86 1 0.2737 0.31093 0.626452
269 1 0.399764 0.361419 0.590487
234 1 0.361558 0.389479 0.742749
102 1 0.256453 0.481397 0.623302
303 2 0.404029 0.46872 0.65465
49 1 0.502072 0.4485 0.540659
342 2 0.595572 0.349625 0.541544
97 1 0.540848 0.328464 0.672189
101 1 0.669402 0.398821 0.697562
355 2 0.884555 0.246141 0.972412
182 1 0.754874 0.219658 0.735399
201 1 0.392545 0.0777999 0.994592
258 1 0.981248 0.276337 0.622883
224 1 0.829122 0.359403 0.623976
230 1 0.978766 0.414167 0.548313
59 1 0.948672 0.434002 0.710563
187 1 0.9706 0.016636 0.689903
90 1 0.891221 0.292155 0.747051
226 1 0.104113 0.0865651 0.785296
198 1 0.185412 0.19072 0.859194
157 1 0.0953065 0.113317 0.959992
332 2 0.189949 0.0649715 0.880733
54 1 0.442088 0.208015 0.933912
70 1 0.48297 0.131322 0.79344
33 1 0.320293 0.136149 0.858632
313 2 0.340217 0.236569 0.981641
272 1 0.71908 0.0199916 0.771022
185 1 0.543528 0.0977627 0.929467
15 1 0.659035 0.165055 0.852876
237 1 0.671503 0.2658 0.971773
13 1 0.239 0.0181357 0.756415
62 1 0.792666 0.157839 0.983035
306 2 0.565248 0.233402 0.901554
31 1 0.934602 0.477282 0.8625
301 2 0.333649 0.292193 0.501879
252 1 0.934311 0.167582 0.876028
315 2 0.798093 0.170076 0.846911
146 1 0.833286 0.0454322 0.888148
261 1 0.00894415 0.0476829 0.535943
334 2 0.0566824 0.197365 0.861572
353 2 0.201224 0.322664 0.843796
35 1 0.983159 0.0103069 0.846163
140 1 0.0724282 0.422267 0.835908
191 1 0.108796 0.297995 0.938869
103 1 0.193129 0.396669 0.734933
165 1 0.507233 0.468916 0.716015
94 1 0.956207 0.327324 0.896596
74 1 0.247443 0.323143 0.972788
87 1 0.326099 0.289443 0.843835
179 1 0.403364 0.413628 0.922964
217 1 0.260598 0.436105 0.86366
255 1 0.559042 0.447345 0.871817
98 1 0.259112 0.0300811 0.567646
270 1 0.529895 0.345557 0.977667
113 1 0.717514 0.417114 0.916862
215 1 0.484134 0.325181 0.822838
106 1 0.640808 0.327247 0.836093
109 1 0.146662 0.131559 0.522027
293 2 0.866694 0.487994 0.557038
218 1 0.249535 0.111818 0.990618
170 1 0.504446 0.273194 0.515509
121 1 0.669489 0.00442417 0.919224
311 2 0.673935 0.112119 0.975186
312 2 0.50839 0.111928 0.522536
96 1 0.752161 0.302287 0.50621
210 1 0.114883 0.565368 0.230072
10 1 0.499843 0.516892 0.12867
39 1 0.0331865 0.72074 0.169229
274 1 0.0698045 0.5843 0.0716589
220 1 0.0973997 0.724815 -0.00365607
181 1 0.215926 0.75245 0.19432
141 1 0.213381 0.602202 0.0180288
317 2 0.215726 0.706513 0.075649
47 1 0.273435 0.599481 0.165333
147 1 0.405161 0.762292 0.078908
296 2 0.436498 0.638147 0.148834
148 1 0.359656 0.614823 0.0415937
80 1 0.565719 0.63812 0.203797
212 1 0.534766 0.664587 0.0604922
117 1 0.688929 0.637481 0.112712
321 2 0.768438 0.729957 0.494725
326 2 0.732578 0.698252 0.211696
200 1 0.805393 0.723271 0.119458
122 1 0.779111 0.565058 0.213443
339 2 0.854106 0.604917 0.09558
128 1 0.925822 0.551755 0.0200512
16 1 0.943331 0.721918 0.0405327
174 1 0.861227 0.694125 0.264034
67 1 0.071541 0.857452 0.0949752
278 1 0.170525 0.939791 0.168646
329 2 0.452685 0.605275 0.493109
286 1 0.209314 0.839837 0.0370897
124 1 0.454254 0.908252 0.0642643
151 1 0.326203 0.852936 0.160348
232 1 0.317389 0.956894 0.0395852
349 2 0.301396 0.508014 0.40015
340 2 0.52095 0.96118 0.195713
267 1 0.499992 0.824685 0.186033
206 1 0.629986 0.765267 0.135157
42 1 0.641266 0.907167 0.0505184
65 1 0.641298 0.904732 0.196807
309 2 0.736773 0.832843 0.125565
196 1 0.322834 0.985749 0.250911
164 1 0.761557 0.812178 0.256819
209 1 0.933416 0.956103 0.0785079
159 1 0.907161 0.826954 0.155538
264 1 0.795549 0.945484 0.175655
82 1 0.820784 0.936409 0.322928
27 1 0.831877 0.840136 0.0212899
248 1 0.210071 0.573072 0.478515
45 1 0.176828 0.681506 0.35629
338 2 0.113609 0.569076 0.360769
130 1 0.959693 0.582318 0.180634
268 1 0.0111251 0.640928 0.304537
85 1 0.236901 0.533958 0.301911
290 2 0.0331197 0.725986 0.399424
38 1 0.962539 0.807988 0.317173
30 1 0.396481 0.728469 0.246735
291 2 0.262792 0.769613 0.473657
357 2 0.281457 0.682104 0.273619
48 1 0.788205 0.990475 0.0230246
21 1 0.394137 0.573586 0.264676
125 1 0.326447 0.638363 0.3781
32 1 0.508861 0.663592 0.369716
9 1 0.631385 0.563759 0.3413
221 1 0.573275 0.551522 0.469507
205 1 0.755481 0.558166 0.435153
314 2 0.639269 0.676686 0.423545
199 1 0.743487 0.698033 0.370951
100 1 0.910515 0.554167 0.4669
93 1 0.885594 0.693006 0.422544
57 1 0.876105 0.549282 0.318238
197 1 0.056753 0.624902 0.466803
188 1 0.101396 0.803025 0.273763
158 1 0.0158668 0.924458 0.235536
89 1 0.149935 0.818845 0.4223
204 1 0.161877 0.944977 0.314793
195 1 0.27503 0.81674 0.322481
302 2 0.403315 0.872333 0.280779
34 1 0.398444 0.78501 0.403931
337 2 0.49978 0.786784 0.332535
233 1 0.414037 0.935233 0.404976
273 1 0.761195 0.507691 0.054968
262 1 0.0205477 0.915849 0.403887
214 1 0.520838 0.909055 0.311068
203 1 0.676249 0.806789 0.453692
52 1 0.539153 0.844403 0.440889
6 1 0.672457 0.920543 0.362489
211 1 0.619999 0.751675 0.291882
4 1 0.825296 0.833303 0.441472
24 1 0.443613 0.521967 0.399318
112 1 0.150424 0.979354 0.466874
359 2 0.39177 0.972193 0.148188
2 1 0.280042 0.8955 0.492085
254 1 0.0172828 0.808767 0.491887
56 1 0.552405 0.802287 -0.00332183
150 1 0.6924 0.766012 0.00376278
352 2 0.115079 0.628972 0.70833
266 1 0.113771 0.565991 0.598614
108 1 0.0467217 0.703587 0.617794
276 1 0.175031 0.711558 0.535943
162 1 0.229233 0.648878 0.66882
160 1 0.0170598 0.565665 0.75527
115 1 0.339585 0.680297 0.541664
46 1 0.447101 0.582309 0.630643
79 1 0.505225 0.710657 0.524949
84 1 0.445112 0.725922 0.672029
161 1 0.336559 0.533811 0.745052
345 2 0.571917 0.65653 0.657618
12 1 0.607013 0.525559 0.625718
277 1 0.657425 0.969911 0.643908
227 1 0.727008 0.680781 0.696326
168 1 0.350231 0.535151 0.521831
14 1 0.502383 0.938738 0.917637
73 1 0.881154 0.778676 0.882627
347 2 0.953794 0.663501 0.530233
81 1 0.82427 0.63785 0.569508
28 1 0.958825 0.563738 0.620609
116 1 0.896926 0.666879 0.71741
216 1 0.776964 0.536718 0.665854
91 1 0.135075 0.793957 0.70864
69 1 0.162286 0.856851 0.572648
324 2 0.0518807 0.925769 0.536749
348 2 0.222692 0.906165 0.683841
139 1 0.115255 0.9933 0.619583
333 2 0.875311 0.925345 0.930489
126 1 0.346209 0.936041 0.654077
76 1 0.286144 0.794232 0.641114
193 1 0.409437 0.843593 0.55033
343 2 0.369613 0.828339 0.727341
263 1 0.561536 0.972825 0.783082
325 2 0.479782 0.957338 0.518401
114 1 0.180126 0.534161 0.76812
88 1 0.692867 0.846103 0.7239
225 1 0.607329 0.809704 0.604702
61 1 0.484246 0.877646 0.680687
152 1 0.769477 0.820186 0.582661
127 1 0.905031 0.758408 0.579596
37 1 0.0160701 0.867902 0.638057
298 2 0.0144543 0.989232 0.987438
231 1 0.847176 0.798099 0.72234
350 2 0.882522 0.964174 0.760944
223 1 0.921965 0.916964 0.539052
213 1 0.826506 0.942171 0.648926
297 2 0.728082 0.887147 0.958803
282 1 0.788545 0.898253 0.837031
176 1 0.654304 0.669137 0.552728
310 2 0.212056 0.543904 0.891096
249 1 0.186427 0.687913 0.806003
163 1 0.0360137 0.71877 0.800611
75 1 0.0780953 0.595234 0.901402
242 1 0.260912 0.725454 0.931983
319 2 1.00432 0.725568 0.913143
280 1 0.344729 0.723544 0.792641
104 1 0.340678 0.572501 0.90291
36 1 0.442044 0.70912 0.925984
71 1 0.480005 0.547027 0.955279
134 1 0.468732 0.617555 0.782772
83 1 0.58726 0.743627 0.754942
142 1 0.692138 0.571934 0.936045
194 1 0.620175 0.576387 0.782241
137 1 0.593946 0.694933 0.901956
77 1 0.974996 0.864568 0.780667
328 2 0.829436 0.525343 0.944245
131 1 0.782739 0.579139 0.814567
271 1 0.929044 0.626218 0.859441
318 2 0.97142 0.759907 0.695043
72 1 0.808702 0.666423 0.977146
304 2 0.884938 0.535971 0.755508
123 1 0.993914 0.864388 0.954495
95 1 0.145084 0.81107 0.887306
336 2 0.0939643 0.957134 0.87956
260 1 0.2658 0.960457 0.89798
64 1 0.103089 0.934264 0.764061
189 1 0.25261 0.851388 0.791115
29 1 0.361274 0.833508 0.93285
138 1 0.468399 0.827332 0.827917
289 2 0.378497 0.974663 0.93609
180 1 0.402396 0.974176 0.81559
208 1 0.743159 0.734875 0.846169
156 1 0.628194 0.840537 0.866024
287 1 0.754155 0.972817 0.524037
358 2 0.614193 0.930772 0.512039
55 1 0.147432 0.968098 0.999066
ITEM: TIMESTEP
100000
ITEM: NUMBER OF ATOMS
360
ITEM: BOX BOUNDS pp pp pp
0.0000000000000000e+00 6.6943295008216896e+00
0.0000000000000000e+00 6.6943295008216896e+00
0.0000000000000000e+00 6.6943295008216896e+00
ITEM: ATOMS id type xs ys zs
23 1 0.0928126 0.100018 0.115918
331 2 0.190527 0.187289 0.239162
119 1 0.239893 0.223197 0.114865
278 1 0.226739 0.0641806 0.195533
139 1 0.284146 0.0273472 0.468463
183 1 0.935173 0.34555 0.370079
359 2 0.324293 0.130106 0.142706
68 1 0.356145 0.317943 0.187355
171 1 0.403469 0.0756051 0.230471
196 1 0.440745 0.193474 0.140916
206 1 0.816589 0.383895 0.454915
57 1 0.885908 0.48231 0.300782
149 1 0.308928 0.198551 0.254982
8 1 0.567241 0.136045 0.210799
241 1 0.59822 0.000672075 0.0995583
306 2 0.605233 0.149527 0.070221
40 1 0.72991 0.0723629 0.159528
342 2 0.678223 0.216375 0.197159
237 1 0.731353 0.201103 0.0638554
77 1 0.24517 0.0837535 0.0498602
48 1 0.936322 0.0978418 0.184442
300 2 0.830825 0.109965 0.109875
157 1 0.927682 0.11915 0.0308561
228 1 0.659054 0.0592482 0.467681
338 2 0.998403 0.196513 0.112034
247 1 0.796715 0.185294 0.235511
279 1 0.10159 0.249633 0.162412
326 2 0.126231 0.416086 0.195709
222 1 0.15975 0.345589 0.0524724
128 1 0.907143 0.495698 0.112423
259 1 0.000471262 0.364679 0.127116
153 1 0.206885 0.330977 0.229342
45 1 0.240726 0.459338 0.150476
244 1 0.310088 0.347291 0.0531016
296 2 0.500493 0.475289 0.0846518
41 1 0.447161 0.44626 0.189114
238 1 0.465179 0.347188 0.0703598
121 1 0.685713 0.359939 0.229801
235 1 0.593299 0.268684 0.11433
202 1 0.610799 0.415364 0.0833962
258 1 0.780852 0.299842 0.340127
250 1 0.533354 0.328836 0.225176
186 1 0.728104 0.494715 0.215273
155 1 0.941506 0.258825 0.230823
281 1 0.00666355 0.264963 0.0080541
356 2 0.697832 0.323041 0.11413
111 1 0.871619 0.240864 0.0967336
273 1 0.837028 0.379573 0.191641
4 1 0.815343 0.0187646 0.400892
169 1 0.182802 0.093805 0.33141
53 1 0.0597087 0.163367 0.273278
288 1 0.0454868 0.0710161 0.402886
204 1 0.178146 0.23956 0.353733
207 1 0.0249145 0.227656 0.413483
103 1 0.149229 0.157563 0.480724
18 1 0.44421 0.242516 0.451216
63 1 0.462697 0.216828 0.303507
98 1 0.330184 0.141218 0.3886
44 1 0.506244 0.081593 0.384166
360 2 0.248963 0.236165 0.469103
49 1 0.355936 0.43474 0.444155
358 2 0.400157 0.0484261 0.44162
173 1 0.581013 0.184683 0.458538
172 1 0.622409 0.246257 0.314867
320 2 0.605191 0.120816 0.329847
307 2 0.822025 0.0486088 0.237819
60 1 0.0933217 0.485855 0.0878049
158 1 0.905354 0.135813 0.327272
66 1 0.879625 0.227462 0.445894
43 1 0.741159 0.162084 0.381966
113 1 0.761201 0.488899 0.0665663
107 1 0.0705923 0.336406 0.284482
301 2 0.0607069 0.35623 0.416046
136 1 0.194212 0.400955 0.384732
110 1 0.319427 0.447054 0.279942
219 1 0.304557 0.316447 0.352216
24 1 0.455654 0.380316 0.337116
344 2 0.463697 0.371764 0.464606
290 2 0.962219 0.378886 0.251706
9 1 0.586642 0.478106 0.233822
349 2 0.55947 0.46 0.358392
178 1 0.58025 0.344544 0.412392
310 2 0.500201 0.0632496 0.147055
205 1 0.702826 0.440624 0.352159
192 1 0.957552 0.457225 0.473867
32 1 0.556738 0.483418 0.486316
285 1 0.392715 0.0554072 0.069014
211 1 0.377542 0.487303 0.0516292
154 1 0.688475 0.026652 0.302028
105 1 0.357439 0.194932 0.00327343
62 1 0.879503 0.376416 0.00984883
256 1 0.925953 0.0832823 0.498188
85 1 0.0610982 0.488224 0.370616
185 1 0.511165 0.113331 0.00832726
17 1 0.766711 0.0813749 0.00238136
90 1 0.0991893 0.195482 0.641507
353 2 0.103672 0.0797409 0.710459
245 1 0.200352 0.178854 0.768341
226 1 0.101516 0.0406182 0.576158
216 1 0.947081 0.477157 0.867403
295 2 0.216339 0.0797684 0.567384
132 1 0.363372 0.1627 0.534582
260 1 0.368088 0.138404 0.69956
13 1 0.23361 0.215593 0.610664
182 1 0.479987 0.220259 0.613638
144 1 0.966665 0.308781 0.869726
83 1 0.496818 0.0539248 0.536124
251 1 0.638448 0.174669 0.610921
22 1 0.523684 0.0954607 0.694181
5 1 0.673161 0.0128167 0.625796
255 1 0.621068 0.245853 0.972442
143 1 0.639478 0.126318 0.774333
322 2 0.24916 0.250664 0.982337
93 1 0.828052 0.49352 0.75738
350 2 0.992916 0.0863429 0.618071
133 1 0.781351 0.120359 0.52369
70 1 0.747248 0.218309 0.704818
275 1 0.867252 0.132906 0.651088
26 1 0.784018 0.0522623 0.738331
191 1 0.0947302 0.348806 0.645074
303 2 0.232872 0.468591 0.712116
236 1 0.239305 0.384516 0.606625
234 1 0.210629 0.352147 0.766051
257 1 0.112818 0.472923 0.526578
106 1 0.638507 0.466412 0.947252
104 1 0.355178 0.290169 0.691365
97 1 0.440305 0.415143 0.619056
101 1 0.692389 0.418726 0.535676
165 1 0.584242 0.441924 0.678531
215 1 0.584377 0.277895 0.707614
229 1 0.717528 0.377884 0.738283
323 2 0.683023 0.298928 0.616
167 1 0.57553 0.331154 0.561967
20 1 0.981773 0.304872 0.53854
59 1 0.954512 0.398824 0.718332
321 2 0.995066 0.432094 0.594758
25 1 0.829279 0.416932 0.621093
230 1 0.956418 0.254044 0.691564
351 2 0.832942 0.315863 0.723106
175 1 0.840012 0.272073 0.594328
140 1 0.0759101 0.243183 0.791
126 1 0.129759 0.0708624 0.837189
190 1 0.990641 0.158487 0.889424
293 2 0.564031 0.361541 0.974768
91 1 0.230806 0.0341968 0.707357
294 2 0.460093 0.210078 0.746582
74 1 0.134546 0.173694 0.988649
334 2 0.0532647 0.0719697 0.985073
253 1 0.250833 0.153719 0.901307
332 2 0.299616 0.107729 0.800844
33 1 0.419229 0.114515 0.886705
265 1 0.737603 0.339298 0.993773
86 1 0.338353 0.31487 0.524564
239 1 0.71504 0.00281202 0.852293
1 1 0.151605 0.311669 0.501324
263 1 0.620785 0.100323 0.914975
327 2 0.0142781 0.167083 0.526642
108 1 0.870047 0.0682594 0.874676
252 1 0.983467 0.0853118 0.737828
224 1 0.860416 0.1972 0.796432
292 2 0.768199 0.147393 0.871972
118 1 0.840384 0.230021 0.952779
120 1 0.827318 0.357511 0.846512
198 1 0.14776 0.291662 0.902272
243 1 0.0188572 0.418397 0.977164
94 1 0.077732 0.404993 0.831026
313 2 0.135521 0.429438 0.934442
184 1 0.704378 0.255119 0.846898
87 1 0.327116 0.260855 0.836584
284 1 0.269441 0.384467 0.912697
201 1 0.412049 0.325024 0.936506
179 1 0.333643 0.447304 0.783132
54 1 0.464487 0.461545 0.884219
280 1 0.468641 0.35183 0.787467
170 1 0.593558 0.359853 0.854741