ITEM: TIMESTEP
0
ITEM: NUMBER OF ATOMS
360
ITEM: BOX BOUNDS pp pp pp
0.0000000000000000e+00 6.6943295008216896e+00
0.0000000000000000e+00 6.6943295008216896e+00
0.0000000000000000e+00 6.6943295008216896e+00
ITEM: ATOMS id type xs ys zs
224 1 0.100277 0.156086 0.143499
95 1 0.187795 0.0862843 0.0201418
294 2 0.215995 0.117027 0.237876
124 1 0.050726 0.244036 0.0139723
75 1 0.202839 0.0187669 0.154131
158 1 0.190132 0.2437 0.0551695
180 1 0.014913 0.0268198 0.138243
56 1 0.299554 0.176176 0.144331
279 1 0.447816 0.226989 0.138881
220 1 0.345822 0.0540351 0.230894
273 1 0.365366 0.08394 0.0533747
159 1 0.484472 0.0712626 0.163855
305 2 0.292378 0.169327 0.00299639
318 2 0.487754 0.0956112 0.0336278
10 1 0.589948 0.18129 0.0566399
138 1 0.675184 0.10277 0.16518
163 1 0.734713 0.0316081 0.0289073
313 2 0.58027 0.245626 0.18238
274 1 0.741464 0.221994 0.00179975
349 2 0.980202 0.149979 0.0985847
27 1 0.879264 0.0679457 0.073598
245 1 0.813196 0.0396776 0.212067
42 1 0.812032 0.197435 0.142629
170 1 0.957484 0.133555 0.222361
82 1 0.896618 0.216633 0.0236161
22 1 0.187881 0.260859 0.21577
293 2 0.0972797 0.285416 0.132544
19 1 0.0900939 0.394014 0.0596551
256 1 0.237404 0.390555 0.150077
270 1 0.095507 0.39222 0.217846
143 1 0.193967 0.48516 0.0123197
354 2 0.358168 0.300049 0.191186
53 1 0.398216 0.423909 0.165487
37 1 0.330051 0.325111 0.0478018
352 2 0.287692 0.499323 0.22606
44 1 0.488287 0.351708 0.0546856
175 1 0.698314 0.284496 0.229065
21 1 0.573495 0.395381 0.202834
174 1 0.65791 0.325778 0.0756283
289 2 0.718634 0.396569 0.158529
228 1 0.630644 0.481275 0.0953334
28 1 0.953815 0.485082 0.0302739
17 1 0.961298 0.269435 0.150024
358 2 0.961189 0.354341 0.0516237
179 1 0.813342 0.347564 0.0636066
200 1 0.950299 0.429318 0.177124
232 1 0.815154 0.376222 0.232744
147 1 0.093201 0.0446517 0.26413
189 1 0.168669 0.158907 0.359637
122 1 0.137168 0.0162222 0.449539
117 1 0.234033 0.0199329 0.331884
160 1 0.037813 0.247623 0.280298
89 1 0.0838196 0.173392 0.497859
321 2 0.425246 0.151952 0.254107
300 2 0.287978 0.120096 0.419747
92 1 0.318735 0.19474 0.317292
133 1 0.412393 0.0844704 0.382139
234 1 0.478127 0.223831 0.402886
48 1 0.555574 0.151104 0.271148
146 1 0.675649 0.0136609 0.286385
212 1 0.718707 0.157322 0.478962
323 2 0.702115 0.0471844 0.412312
145 1 0.588473 0.105829 0.409138
14 1 0.699925 0.162535 0.326453
335 2 0.615086 0.226453 0.448583
125 1 0.999443 0.11245 0.375999
312 2 0.834786 0.211119 0.41288
244 1 0.85303 0.236904 0.286522
277 1 0.845839 0.0986411 0.364329
81 1 0.0971084 0.332684 0.490147
332 2 0.0897671 0.250102 0.39555
164 1 0.143568 0.479451 0.456319
31 1 0.0299642 0.388469 0.361769
41 1 0.170169 0.337289 0.355493
355 2 0.2413 0.385086 0.458228
100 1 0.220277 0.254443 0.483697
5 1 0.333026 0.481773 0.400186
33 1 0.446382 0.30731 0.276324
342 2 0.475208 0.425408 0.290174
132 1 0.296777 0.37801 0.285048
169 1 0.352631 0.316325 0.421136
76 1 0.469372 0.408844 0.426452
215 1 0.609366 0.379083 0.484232
290 2 0.571573 0.49507 0.463367
297 2 0.68482 0.390855 0.299224
250 1 0.584225 0.312828 0.334277
282 1 0.725253 0.470288 0.390059
238 1 0.722398 0.295867 0.393218
247 1 0.581432 0.470358 0.338278
177 1 0.860105 0.377127 0.385603
338 2 0.935027 0.34163 0.286766
272 1 0.959216 0.254928 0.422321
23 1 0.240941 0.100949 0.548669
90 1 0.118937 0.0360775 0.607686
134 1 0.226057 0.0476577 0.709604
24 1 0.00551087 0.155778 0.6355
13 1 0.178819 0.213758 0.62667
11 1 0.028196 0.0164592 0.733115
351 2 0.307447 0.156888 0.659975
8 1 0.381957 0.0514474 0.618855
141 1 0.449811 0.183322 0.655915
285 1 0.36699 0.183442 0.522972
188 1 0.489416 0.0278334 0.501408
194 1 0.533307 0.0531906 0.649074
58 1 0.641083 0.163724 0.69175
243 1 0.580641 0.168047 0.558864
70 1 0.649101 0.0314975 0.537816
67 1 0.779956 0.146087 0.625282
102 1 0.886467 0.141812 0.503819
350 2 0.98133 0.233081 0.543256
127 1 0.799322 0.010728 0.51371
49 1 0.992199 0.0196665 0.521638
235 1 0.896426 0.0460054 0.644277
140 1 0.203448 0.472985 0.713479
353 2 0.097228 0.405225 0.697393
106 1 0.206686 0.404032 0.587497
268 1 0.0519797 0.305688 0.635093
344 2 0.00999094 0.253937 0.742861
108 1 0.0415925 0.492175 0.597651
248 1 0.312155 0.281811 0.631805
314 2 0.313512 0.407509 0.679882
286 1 0.46406 0.373432 0.696888
29 1 0.36927 0.409912 0.548481
55 1 0.484218 0.297864 0.552776
69 1 0.496777 0.486867 0.567155
348 2 0.565716 0.279536 0.653317
36 1 0.682553 0.28137 0.58073
136 1 0.626049 0.410316 0.647006
333 2 0.741794 0.406038 0.50449
252 1 0.750645 0.285156 0.746289
4 1 0.832261 0.287487 0.51664
65 1 0.877369 0.25486 0.655698
86 1 0.789705 0.390266 0.632023
128 1 0.946064 0.380654 0.547027
137 1 0.890642 0.497315 0.673994
60 1 0.833526 0.489275 0.508258
225 1 0.0263274 0.0933145 0.980203
93 1 0.240365 0.186117 0.773536
254 1 0.100236 0.156087 0.752446
167 1 0.144379 0.0346212 0.867739
50 1 0.146675 0.199273 0.897465
347 2 0.0071459 0.10128 0.844959
88 1 0.375957 0.0881277 0.773346
257 1 0.284654 0.089321 0.896081
18 1 0.442396 0.0574802 0.912348
291 2 0.402976 0.174485 0.876642
1 1 0.301281 0.248892 0.906827
74 1 0.423527 0.212863 0.995726
157 1 0.518605 0.15168 0.791361
97 1 0.604652 0.07814 0.946454
168 1 0.676828 0.195039 0.86287
281 1 0.634475 0.0401461 0.79469
341 2 0.76816 0.099194 0.911271
222 1 0.83292 0.227279 0.880248
87 1 0.922541 0.150875 0.757898
284 1 0.772924 0.0943068 0.775642
155 1 0.986389 0.23435 0.871608
118 1 0.88793 0.0761281 0.906041
142 1 0.0412073 0.498153 0.75673
183 1 0.114463 0.317865 0.786159
359 2 0.123823 0.435059 0.82778
94 1 0.0324951 0.3805 0.913857
129 1 0.171304 0.346747 0.933681
242 1 0.228507 0.49286 0.860394
172 1 0.259139 0.341716 0.799107
113 1 0.387074 0.25224 0.779006
57 1 0.414807 0.359779 0.892085
148 1 0.370496 0.458698 0.789723
308 2 0.287462 0.38896 0.923645
271 1 0.358439 0.477873 0.958954
34 1 0.594184 0.320236 0.772165
184 1 0.748559 0.476196 0.9883
152 1 0.704797 0.340609 0.902669
296 2 0.508763 0.403761 0.824862
181 1 0.568442 0.408923 0.942456
241 1 0.638332 0.460205 0.815455
20 1 0.538859 0.262023 0.905728
214 1 0.799196 0.426021 0.783092
198 1 0.942871 0.360732 0.767767
47 1 0.880429 0.365594 0.926988
197 1 0.207241 0.647238 0.0835272
276 1 0.16466 0.530916 0.174822
38 1 0.0722047 0.579651 0.0555259
139 1 0.0599817 0.731623 0.167286
267 1 0.477272 0.509395 0.0604001
264 1 0.335729 0.553184 0.0961194
103 1 0.447557 0.646607 0.140717
299 2 0.303649 0.709203 0.131298
182 1 0.290524 0.638835 0.237191
130 1 0.32213 0.716188 0.000976607
310 2 0.564272 0.605242 0.0648189
6 1 0.695518 0.618484 0.0899123
176 1 0.595715 0.694051 0.192005
251 1 0.541913 0.545231 0.196947
261 1 0.599522 0.739137 0.0438736
80 1 0.695232 0.506722 0.239365
283 1 0.947695 0.592856 0.157361
35 1 0.807568 0.630274 0.222368
227 1 0.974282 0.699562 0.0266018
315 2 0.85508 0.661899 0.0972467
209 1 0.809496 0.504058 0.139366
156 1 0.211051 0.767296 0.190635
79 1 0.107955 0.884797 0.169419
199 1 0.123816 0.775064 0.0240018
72 1 0.134195 0.93389 0.0112836
68 1 0.287794 0.853617 0.0919946
237 1 0.445322 0.788231 0.0774455
64 1 0.435342 0.917995 0.188189
322 2 0.331011 0.968674 0.120165
121 1 0.435704 0.93914 0.0355885
217 1 0.27022 0.903581 0.231627
345 2 0.490483 0.75745 0.192397
207 1 0.366093 0.787034 0.219016
185 1 0.286449 0.971375 0.00119997
96 1 0.590811 0.973536 0.0693837
328 2 0.556235 0.863195 0.0229734
84 1 0.578483 0.845106 0.151186
325 2 0.584107 0.979832 0.198005
211 1 0.706511 0.934385 0.156353
151 1 0.703304 0.864345 0.0165706
150 1 0.75213 0.759578 0.15478
190 1 0.994512 0.856542 0.0622562
298 2 0.959634 0.911016 0.177339
306 2 0.958814 0.973662 0.0130349
219 1 0.906958 0.754754 0.178135
154 1 0.840569 0.776104 0.0238948
62 1 0.859032 0.913665 0.10298
166 1 0.201466 0.513631 0.321072
149 1 0.0456244 0.519543 0.282587
114 1 0.134704 0.651855 0.281362
357 2 0.169587 0.612289 0.40476
104 1 0.123793 0.748047 0.406396
25 1 0.240682 0.711205 0.49865
203 1 0.400354 0.542362 0.271351
7 1 0.312894 0.626981 0.393611
115 1 0.476741 0.668234 0.293131
45 1 0.477887 0.562902 0.39767
260 1 0.451064 0.729042 0.440125
123 1 0.713207 0.623732 0.450437
171 1 0.617779 0.616567 0.329372
304 2 0.579086 0.741261 0.310974
54 1 0.723994 0.72168 0.323099
326 2 0.746197 0.587946 0.333259
202 1 0.883296 0.506998 0.293617
71 1 0.976504 0.693339 0.303461
39 1 0.985665 0.509601 0.429563
73 1 0.868941 0.617101 0.396091
280 1 0.977535 0.729345 0.455806
85 1 0.17663 0.871743 0.474956
346 2 0.0432916 0.982963 0.371035
340 2 0.120659 0.782828 0.279516
3 1 0.128019 0.90052 0.324761
131 1 0.00275594 0.878682 0.445409
112 1 0.312858 0.988745 0.465073
2 1 0.331618 0.832166 0.464708
327 2 0.255028 0.896864 0.37619
186 1 0.254058 0.772886 0.330828
331 2 0.382257 0.804612 0.344418
51 1 0.383426 0.93097 0.343572
101 1 0.472456 0.879751 0.451108
178 1 0.520776 0.994892 0.305221
43 1 0.625998 0.771862 0.431724
213 1 0.5077 0.837093 0.305848
119 1 0.666699 0.849889 0.285511
78 1 0.6267 0.937927 0.411288
317 2 0.733988 0.837073 0.394197
63 1 0.830463 0.874374 0.250668
107 1 0.938694 0.99596 0.294928
316 2 0.900572 0.962033 0.443494
12 1 0.786262 0.948306 0.379711
40 1 0.991917 0.842405 0.279923
288 1 0.878023 0.806759 0.382798
26 1 0.207848 0.639359 0.640824
336 2 0.0775672 0.631949 0.646481
303 2 0.156269 0.521475 0.608163
99 1 0.101902 0.613304 0.516846
343 2 0.327812 0.65776 0.594062
216 1 0.36783 0.523299 0.658644
52 1 0.345217 0.683053 0.724018
15 1 0.404524 0.600671 0.521445
165 1 0.482576 0.635529 0.654597
339 2 0.272215 0.583427 0.740769
253 1 0.255831 0.559047 0.522942
236 1 0.675656 0.511282 0.539215
193 1 0.68964 0.649423 0.618502
309 2 0.595738 0.557369 0.636422
116 1 0.720489 0.529694 0.697195
30 1 0.549306 0.627693 0.514326
153 1 0.529812 0.511553 0.729734
329 2 0.798553 0.602008 0.549791
269 1 0.947116 0.604969 0.554972
98 1 0.832875 0.644014 0.668661
206 1 0.815008 0.726365 0.506881
66 1 0.980728 0.634324 0.721308
226 1 0.0561029 0.783928 0.74296
205 1 0.0995827 0.764526 0.578674
144 1 0.128315 0.913654 0.685684
295 2 0.0856435 0.919594 0.558704
195 1 0.235214 0.785542 0.633235
229 1 0.257306 0.935039 0.596628
126 1 0.394407 0.766023 0.58396
191 1 0.456066 0.910777 0.607747
287 1 0.363981 0.843911 0.704723
311 2 0.490423 0.759921 0.676818
337 2 0.378367 0.966 0.732578
356 2 0.69389 0.756326 0.541796
265 1 0.614451 0.765124 0.703892
208 1 0.559166 0.783162 0.56351
162 1 0.61342 0.91559 0.656445
109 1 0.702792 0.879252 0.530537
330 2 0.576859 0.921192 0.535903
258 1 0.939411 0.752161 0.604094
278 1 0.98579 0.89846 0.630744
173 1 0.777973 0.785333 0.636751
334 2 0.850689 0.905707 0.656575
83 1 0.869489 0.87446 0.534478
77 1 0.755278 0.991091 0.663963
266 1 0.0835876 0.542932 0.906243
204 1 0.143422 0.60618 0.78416
239 1 0.0468534 0.707811 0.8827
9 1 0.186267 0.663928 0.931652
360 2 0.420284 0.568893 0.758776
32 1 0.464798 0.647413 0.979924
161 1 0.33936 0.609966 0.864091
223 1 0.469835 0.674011 0.820853
307 2 0.278412 0.597448 0.982299
275 1 0.479229 0.525732 0.882054
16 1 0.603666 0.620822 0.793611
259 1 0.630897 0.553959 0.956044
324 2 0.581601 0.66404 0.907629
59 1 0.71816 0.685303 0.95376
218 1 0.747871 0.711498 0.782278
46 1 0.92378 0.509711 0.865685
196 1 0.847225 0.593594 0.990861
91 1 0.758571 0.556101 0.857268
319 2 0.856005 0.574425 0.777766
240 1 0.887437 0.66893 0.862316
292 2 0.972371 0.601432 0.934224
233 1 0.20406 0.758978 0.793094
110 1 0.240837 0.840079 0.942586
263 1 0.101362 0.869565 0.85233
249 1 0.000200762 0.965472 0.887012
210 1 0.493454 0.980685 0.787013
201 1 0.253418 0.918153 0.806146
230 1 0.351121 0.773657 0.852454
262 1 0.387334 0.92209 0.879286
231 1 0.490678 0.785466 0.928478
301 2 0.368988 0.841257 0.977022
255 1 0.504848 0.833427 0.77448
320 2 0.61487 0.917443 0.788946
221 1 0.732117 0.970493 0.876877
246 1 0.726506 0.870525 0.751685
105 1 0.633972 0.806896 0.863022
135 1 0.561082 0.930344 0.910088
192 1 0.944341 0.814721 0.897017
120 1 0.859553 0.933334 0.955326
302 2 0.985175 0.898089 0.768984
187 1 0.871416 0.951469 0.786544
61 1 0.780069 0.814963 0.884954
111 1 0.892348 0.78819 0.756502
ITEM: TIMESTEP
3000000
ITEM: NUMBER OF ATOMS
360
ITEM: BOX BOUNDS pp pp pp
0.0000000000000000e+00 6.6943295008216896e+00
0.0000000000000000e+00 6.6943295008216896e+00
0.0000000000000000e+00 6.6943295008216896e+00
ITEM: ATOMS id type xs ys zs
56 1 0.177716 0.130623 0.177057
1 1 0.10571 0.0378584 0.0578272
273 1 0.179218 0.190139 0.0405672
95 1 0.259271 0.0576391 0.0489752
18 1 0.328709 0.0914995 0.195926
279 1 0.458062 0.121213 0.143131
88 1 0.339498 0.195118 0.0536965
320 2 0.392024 0.0779727 0.0330248
44 1 0.373119 0.23961 0.203297
274 1 0.611336 0.0876582 0.106879
42 1 0.560072 0.211493 0.21022
59 1 0.692479 0.227612 0.115854
190 1 0.686048 0.0851572 0.231914
328 2 0.766588 0.116859 0.138387
159 1 0.515533 0.02382 0.249729
33 1 0.724567 0.466641 0.224948
254 1 0.0184288 0.211056 0.0370222
72 1 0.0118812 0.108977 0.170349
22 1 0.886918 0.105104 0.0796614
17 1 0.853926 0.213777 0.176321
62 1 0.858138 0.0640266 0.221124
256 1 0.0786335 0.264287 0.181919
354 2 0.126419 0.318718 0.034979
53 1 0.0941238 0.405721 0.120518
4 1 0.229768 0.289489 0.143778
294 2 0.825581 0.48625 0.314361
293 2 0.628953 0.192709 0.000939278
358 2 0.469304 0.245809 0.10896
7 1 0.250942 0.450066 0.0878628
127 1 0.0935781 0.0350914 0.447652
41 1 0.378374 0.345382 0.057382
29 1 0.485741 0.351781 0.18598
247 1 0.318424 0.384851 0.236942
267 1 0.509371 0.442417 0.0494347
74 1 0.571286 0.301476 0.0493502
21 1 0.680456 0.423474 0.054646
234 1 0.642341 0.340806 0.201673
31 1 0.183008 0.475978 0.246063
209 1 0.79182 0.344882 0.142244
38 1 0.95791 0.349324 0.11863
184 1 0.859003 0.42207 0.0231271
77 1 0.8494 0.159566 0.49547
220 1 0.105781 0.0353892 0.281854
107 1 0.1053 0.179284 0.339595
146 1 0.231759 0.119863 0.454035
325 2 0.237818 0.0654071 0.282744
213 1 0.353088 0.0208165 0.402436
92 1 0.262161 0.19492 0.301869
51 1 0.422726 0.132553 0.313002
14 1 0.353188 0.199275 0.440254
353 2 0.489683 0.168482 0.416263
45 1 0.414921 0.49069 0.154971
78 1 0.50493 0.0443631 0.435524
10 1 0.592688 0.146613 0.348261
28 1 0.718788 0.230617 0.286666
67 1 0.722652 0.249463 0.460636
89 1 0.868691 0.299847 0.422342
19 1 0.854271 0.25208 0.0124629
147 1 0.970685 0.237782 0.281416
175 1 0.728483 0.0813805 0.399337
170 1 0.968269 0.103648 0.353275
295 2 0.963324 0.203394 0.430733
125 1 0.836634 0.166887 0.343358
65 1 0.838722 0.428213 0.491983
189 1 0.191589 0.272951 0.474485
30 1 0.612388 0.504711 0.340312
94 1 0.0374079 0.386758 0.267254
270 1 0.184076 0.326278 0.307152
200 1 0.025753 0.316783 0.410985
81 1 0.136344 0.451369 0.397782
160 1 0.304911 0.347663 0.401361
188 1 0.454847 0.30022 0.36194
136 1 0.458257 0.454091 0.305252
132 1 0.525801 0.422806 0.443356
6 1 0.873322 0.478919 0.17636
169 1 0.607225 0.320269 0.364327
238 1 0.0742019 0.173435 0.501047
283 1 0.748163 0.378965 0.354461
243 1 0.875958 0.354706 0.275781
157 1 0.511342 0.00801091 0.00228829
148 1 0.498525 0.181101 -0.00532121
100 1 0.94398 0.482723 0.363892
76 1 0.567202 0.485109 0.184865
282 1 0.683686 0.419461 0.493641
13 1 0.380142 0.43904 0.501044
229 1 0.143265 0.0677156 0.596884
70 1 0.0300225 0.153215 0.656985
304 2 0.223143 0.199318 0.718531
108 1 0.144991 0.25117 0.616582
133 1 0.452175 0.29876 0.513655
248 1 0.279186 0.155549 0.603779
145 1 0.444645 0.132359 0.548031
281 1 0.474376 0.061258 0.687117
290 2 0.393158 0.143306 0.658585
141 1 0.586286 0.189023 0.498195
306 2 0.678728 0.325462 0.856477
153 1 0.497975 0.231224 0.650322
58 1 0.610589 0.113617 0.626953
337 2 0.523569 0.0279211 0.554226
312 2 0.69352 0.124447 0.518625
351 2 0.341142 0.0631867 0.524781
235 1 0.759831 0.156374 0.630362
298 2 0.890376 0.180048 0.626506
258 1 0.88645 0.0607552 0.667854
43 1 0.965521 0.0693185 0.532213
90 1 0.810032 3.8588e-06 0.542511
222 1 0.892735 0.207054 0.746073
269 1 0.0523928 0.387565 0.639372
183 1 0.212903 0.365629 0.698955
106 1 0.188498 0.412647 0.544555
344 2 0.0813493 0.33478 0.52118
292 2 0.00060099 0.270456 0.700872
289 2 0.995955 0.474776 0.723888
48 1 0.581668 0.250328 0.88609
323 2 0.489071 0.336085 0.95529
118 1 0.733115 0.0175839 0.690106
178 1 0.307968 0.294392 0.580808
204 1 0.354389 0.265293 0.7251
216 1 0.353652 0.431477 0.662707
338 2 0.461921 0.346391 0.684256
335 2 0.592434 0.318762 0.486012
113 1 0.504863 0.478392 0.727052
194 1 0.653954 0.269346 0.601423
55 1 0.556079 0.390732 0.594226
348 2 0.675497 0.38625 0.661151
174 1 0.588138 0.320136 0.740286
342 2 0.799616 0.406065 0.783697
39 1 0.755369 0.298322 0.743461
61 1 0.974398 0.273084 0.557181
232 1 0.824072 0.292866 0.600806
177 1 0.906997 0.357663 0.723314
314 2 0.921044 0.391462 0.595573
137 1 0.797661 0.449019 0.652218
315 2 0.936408 0.470305 0.909208
156 1 0.158723 0.0812446 0.756372
225 1 0.127326 0.123784 0.905819
224 1 0.0076332 0.0733044 0.798995
158 1 0.243807 0.241658 0.845103
201 1 0.266249 0.0324091 0.892187
23 1 0.106821 0.251542 0.768213
286 1 0.331786 0.114863 0.763393
321 2 0.289971 0.15673 0.935244
356 2 0.507096 0.0489744 0.841733
210 1 0.406011 0.0985944 0.905589
252 1 0.471083 0.172749 0.794404
162 1 0.316768 0.00974893 0.647699
212 1 0.871984 0.323764 0.870758
129 1 0.120592 0.49833 0.74058
168 1 0.662098 0.157457 0.769753
8 1 0.59719 0.0203859 0.765
34 1 0.608961 0.0978517 0.911534
196 1 0.773667 0.195734 0.870036
99 1 0.126507 0.459096 0.985745
97 1 0.721651 0.0235776 0.851222
330 2 0.781383 0.120905 0.744542
24 1 0.952269 0.192349 0.889932
333 2 0.873119 0.12468 0.95666
245 1 0.863246 0.073285 0.832062
93 1 0.991424 0.0646987 0.967204
124 1 0.0124954 0.387768 0.820519
143 1 0.113373 0.272294 0.918251
276 1 0.159429 0.391199 0.837837
152 1 0.754953 0.429508 0.904532
181 1 0.682988 0.445867 0.770786
110 1 0.275288 0.481373 0.948643
285 1 0.384439 0.249716 0.907199
308 2 0.393846 0.476565 0.775814
264 1 0.419413 0.440082 0.920416
271 1 0.463761 0.340124 0.815984
37 1 0.31245 0.375512 0.826719
179 1 0.719893 0.293247 0.977797
32 1 0.596517 0.404427 0.908403
140 1 0.247417 0.32763 0.968102
27 1 0.74064 0.117148 1.01614
242 1 0.996893 0.362521 0.967799
49 1 0.63434 0.00586885 0.505318
272 1 0.99033 0.435643 0.496952
227 1 0.118183 0.565071 0.129028
240 1 0.0726992 0.718769 0.091591
317 2 0.0936151 0.658688 0.203037
203 1 0.225694 0.710441 0.0761945
332 2 0.228255 0.564073 0.0378083
35 1 0.943534 0.717786 0.0167432
186 1 0.294964 0.597772 0.148162
343 2 0.34849 0.672067 0.0389245
207 1 0.40905 0.734855 0.14694
357 2 0.288537 0.717835 0.20377
291 2 0.319285 0.518531 0.23966
251 1 0.505615 0.617434 0.132387
339 2 0.47002 0.747747 0.265109
130 1 0.395476 0.557669 0.0294012
164 1 0.207372 0.563518 0.484326
154 1 0.639044 0.685898 0.0528688
326 2 0.615118 0.543619 0.0821108
80 1 0.654231 0.60984 0.209371
322 2 0.735432 0.691176 0.140814
288 1 0.779663 0.957374 0.294831
104 1 0.969782 0.63462 0.163323
46 1 0.77199 0.567124 0.109548
299 2 0.87785 0.611173 0.0807743
228 1 0.853131 0.720466 0.135895
20 1 0.660111 0.971988 0.0128168
50 1 0.9873 0.522307 0.0253079
40 1 0.159662 0.776553 0.20542
75 1 0.218157 0.960517 0.17189
139 1 0.0799072 0.892816 0.147389
301 2 0.157383 0.820406 0.0787156
83 1 0.87583 0.997381 0.405768
84 1 0.298388 0.84269 0.125364
109 1 0.416361 0.976764 0.12932
261 1 0.480712 0.874532 0.207788
309 2 0.432235 0.860988 0.0714561
121 1 0.574232 0.744881 0.18342
96 1 0.551188 0.873326 0.0455702
163 1 0.645945 0.905705 0.211928
138 1 0.698891 0.816852 0.0730992
253 1 0.891983 0.592644 0.468618
63 1 0.727714 0.765927 0.244211
182 1 0.990364 0.778291 0.213473
239 1 0.951557 0.958811 0.0719983
334 2 0.963552 0.822692 0.101743
219 1 0.85114 0.861377 0.177392
180 1 0.772924 0.97889 0.114025
150 1 0.854073 0.8431 0.0280931
280 1 0.0515684 0.550738 0.275657
340 2 0.151782 0.577913 0.36759
5 1 0.226793 0.63784 0.275494
202 1 0.0483892 0.583175 0.434277
79 1 0.0862005 0.691477 0.32374
230 1 0.467338 0.70457 -0.00607183
3 1 0.972129 0.954078 0.24477
268 1 0.320245 0.664638 0.399875
2 1 0.407178 0.61726 0.257022
25 1 0.454093 0.569299 0.423293
116 1 0.461733 0.727009 0.399105
360 2 0.577897 0.72256 0.440056
119 1 0.543906 0.639031 0.311065
198 1 0.676436 0.674893 0.368942
215 1 0.612118 0.58093 0.485121
236 1 0.758706 0.543823 0.401738
277 1 0.913621 0.848485 0.333911
311 2 0.0142186 0.964319 0.387668
176 1 0.803821 0.626775 0.276967
319 2 0.862114 0.740984 0.267825
297 2 0.0117721 0.505888 0.149772
171 1 0.818729 0.707503 0.40685
128 1 0.940628 0.654932 0.318401
71 1 0.984141 0.759516 0.448139
115 1 0.127201 0.857926 0.464757
117 1 0.0812406 0.87702 0.309677
217 1 0.218873 0.946717 0.36738
68 1 0.214571 0.77822 0.358697
318 2 0.236527 0.864942 0.26583
346 2 0.550981 0.96208 0.136908
262 1 0.348108 0.941789 0.264972
142 1 0.326385 0.863568 0.441721
54 1 0.34824 0.785365 0.287036
73 1 0.454525 0.88716 0.375696
244 1 0.564425 0.839182 0.486343
316 2 0.73946 0.949472 0.448622
123 1 0.610271 0.955917 0.361054
12 1 0.725562 0.835457 0.389736
64 1 0.578855 0.789416 0.326253
167 1 0.217456 0.912562 -0.00189601
57 1 0.32136 0.514548 0.367122
359 2 0.433278 0.82009 0.491807
199 1 0.0441362 0.852832 0.00108892
85 1 0.142283 0.700838 0.477993
206 1 0.850708 0.859963 0.490221
195 1 0.139308 0.67287 0.638288
165 1 0.344764 0.743576 0.534344
345 2 0.037703 0.741586 0.718277
155 1 0.00458622 0.615834 0.724288
87 1 0.0854014 0.532823 0.577433
149 1 0.132191 0.611334 0.971875
310 2 0.319979 0.652131 0.799024
15 1 0.347601 0.592687 0.549612
172 1 0.280719 0.709875 0.684917
355 2 0.398486 0.688463 0.644054
36 1 0.387112 0.579688 0.711696
69 1 0.480737 0.526301 0.573383
260 1 0.489193 0.699812 0.540564
9 1 0.527434 0.647082 0.685963
223 1 0.685609 0.658345 0.684799
352 2 0.61365 0.663735 0.578872
241 1 0.619913 0.532681 0.633733
259 1 0.765634 0.565387 0.551755
192 1 0.995322 0.673745 0.583615
350 2 0.722033 0.540341 0.701036
86 1 0.832033 0.626031 0.695279
114 1 0.849849 0.713273 0.567063
122 1 0.228824 0.957638 0.52412
60 1 0.0604586 0.822023 0.612432
126 1 0.180278 0.935569 0.681118
329 2 0.10596 0.953715 0.56539
112 1 0.212143 0.809998 0.585398
11 1 0.0264821 0.989908 0.663792
26 1 0.155259 0.808471 0.739408
331 2 0.324137 0.893502 0.585141
191 1 0.321926 0.861559 0.713706
287 1 0.430736 0.951528 0.532802
300 2 0.425328 0.939292 0.67102
265 1 0.437619 0.823181 0.619519
349 2 0.0899855 0.9669 0.777255
208 1 0.597978 0.785837 0.632233
250 1 0.567675 0.941089 0.63106
284 1 0.708735 0.885967 0.560657
105 1 0.771276 0.799471 0.662363
327 2 0.942855 0.796841 0.564637
193 1 0.884619 0.897904 0.642455
211 1 0.914348 0.764627 0.708527
102 1 0.888508 0.50566 0.791145
324 2 0.170563 0.518378 0.874878
233 1 0.170686 0.635672 0.806456
296 2 1.00684 0.641855 0.943843
246 1 0.0525927 0.734181 0.845441
302 2 0.930539 0.979599 0.751747
66 1 0.235431 0.546552 0.648011
307 2 0.379842 0.724921 0.891687
197 1 0.279791 0.643551 0.93493
103 1 0.411056 0.582255 0.862921
255 1 0.418943 0.739289 0.761298
52 1 0.266325 0.753439 0.831701
214 1 0.702646 0.555372 0.979682
303 2 0.512427 0.670879 0.867048
161 1 0.594166 0.579489 0.809662
237 1 0.543514 0.580124 0.969565
341 2 0.655935 0.671517 0.892413
16 1 0.590862 0.741776 0.790337
173 1 0.709815 0.725196 0.519388
275 1 0.759626 0.584604 0.834797
98 1 0.897889 0.665294 0.83559
47 1 0.863574 0.576344 0.957641
91 1 0.778469 0.716267 0.975726
218 1 0.754467 0.738783 0.810928
249 1 0.820124 0.916329 0.789876
266 1 0.160415 0.768947 0.940525
336 2 0.0993322 0.855874 0.860102
263 1 0.0980954 0.97095 0.919362
205 1 0.0140058 0.867013 0.74917
144 1 0.219182 0.903978 0.840238
120 1 0.900231 0.801725 0.866015
257 1 0.319156 0.786278 0.976523
166 1 0.0313865 0.535706 0.864892
134 1 0.397413 0.974805 0.810815
135 1 0.455193 0.83058 0.902039
347 2 0.337287 0.866188 0.872874
185 1 0.369584 0.936398 0.980733
151 1 0.742537 0.867179 0.916196
101 1 0.517064 0.876814 0.75444
221 1 0.57935 0.935611 0.885744
187 1 0.68066 0.869911 0.761602
231 1 0.610071 0.779425 0.937385
111 1 0.955567 0.941996 0.879422
226 1 0.275904 0.525655 0.798539
305 2 0.275191 0.9885 0.7691
131 1 0.929165 0.525118 0.619783
82 1 0.843447 0.992964 0.96439
313 2 0.51601 0.498604 0.868607
278 1 0.979586 0.921177 0.510582
ITEM: TIMESTEP
6000000
ITEM: NUMBER OF ATOMS
360
ITEM: BOX BOUNDS pp pp pp
0.0000000000000000e+00 6.6943295008216896e+00
0.0000000000000000e+00 6.6943295008216896e+00
0.0000000000000000e+00 6.6943295008216896e+00
ITEM: ATOMS id type xs ys zs
273 1 0.0359406 0.188741 0.209718
305 2 0.10717 0.122006 0.0811789
274 1 0.184107 0.20983 0.154418
29 1 0.134308 0.0562696 0.190918
266 1 0.245533 0.0783887 0.0518766
347 2 0.0263554 0.0591518 0.244437
73 1 0.290056 0.115859 0.200887
37 1 0.39802 0.110837 0.0679454
335 2 0.371233 0.201186 0.259152
21 1 0.500811 0.216895 0.0476309
89 1 0.892477 0.242762 0.461719
146 1 0.099283 0.007887 0.345709
67 1 0.532437 0.0836638 0.137904
20 1 0.665643 0.132208 0.0585364
353 2 0.572872 0.103189 0.264481
147 1 0.687836 0.132444 0.218064
236 1 0.0283431 0.495977 0.19668
4 1 0.979929 0.130007 0.0759424
17 1 0.823316 0.146295 0.0386042
3 1 0.895389 0.103763 0.197722
289 2 0.921757 0.242328 0.19323
336 2 0.88467 0.0380297 0.0880046
41 1 0.0833507 0.33672 0.223326
75 1 0.139975 0.421418 0.100981
110 1 0.0620306 0.285174 0.0732026
53 1 0.245874 0.319135 0.0448503
48 1 0.501033 0.209904 0.217623
328 2 0.270852 0.489248 0.0310834
38 1 0.371621 0.243257 0.140437
140 1 0.387526 0.397448 0.0498118
164 1 0.285504 0.399801 0.16414
69 1 0.416523 0.362663 0.279227
324 2 0.41864 0.446688 0.168199
283 1 0.645617 0.272352 0.120937
45 1 0.516214 0.362195 0.146117
214 1 0.672555 0.4153 0.0501087
124 1 0.752434 0.385928 0.203512
40 1 0.960819 0.464377 0.35905
50 1 0.992522 0.420572 0.0429817
18 1 0.798759 0.239457 0.161966
92 1 0.909327 0.278752 0.0511192
209 1 0.9264 0.363145 0.203657
184 1 0.827026 0.410706 0.0674239
229 1 0.198201 0.192869 0.482733
238 1 0.22865 0.0256215 0.428065
357 2 0.117474 0.0940619 0.434319
51 1 0.157416 0.164597 0.321337
70 1 0.00882604 0.142216 0.361986
290 2 0.0747123 0.2309 0.425888
288 1 0.770461 0.0153595 0.150991
287 1 0.380199 0.00883311 0.446147
351 2 0.216641 0.0529199 0.301709
279 1 0.316003 0.139413 0.359147
159 1 0.457845 0.0836407 0.303206
190 1 0.49527 0.119596 0.452481
28 1 0.576344 0.46517 0.39066
42 1 0.588508 0.205096 0.36078
188 1 0.634267 0.0637314 0.373828
43 1 0.74714 0.175555 0.42291
12 1 0.792237 0.0427472 0.306344
125 1 0.861729 0.204667 0.304245
256 1 0.879714 0.0944732 0.454569
348 2 0.791087 0.29117 0.391768
323 2 0.293217 0.203724 0.049361
170 1 0.988552 0.309354 0.344926
243 1 0.15879 0.317345 0.371671
61 1 0.0981711 0.441653 0.450517
334 2 0.0649709 0.411857 0.320199
5 1 0.191923 0.442153 0.279792
133 1 0.830094 0.386293 0.322126
10 1 0.438256 0.237175 0.36284
136 1 0.272227 0.277407 0.280659
71 1 0.247448 0.426202 0.451454
316 2 0.310345 0.389328 0.349445
189 1 0.313433 0.290416 0.435715
145 1 0.425673 0.396852 0.439997
304 2 0.687034 0.01033 0.246363
344 2 0.529389 0.319788 0.401618
44 1 0.717407 0.269434 0.289095
55 1 0.670275 0.334046 0.420285
152 1 0.71606 0.480451 0.319505
14 1 0.584153 0.358823 0.277059
220 1 0.0247499 0.0169235 0.477293
270 1 0.82675 0.389878 0.496195
31 1 0.333527 0.504138 0.291021
132 1 0.623261 0.486306 0.186662
56 1 0.00640202 0.332131 0.497493
1 1 0.947698 0.00272085 0.33515
144 1 0.137377 0.0892232 0.722702
277 1 0.153702 0.0565518 0.554761
292 2 0.144542 0.196205 0.590778
126 1 0.0003306 0.026747 0.635752
333 2 0.0182191 0.136508 0.691533
11 1 0.0334288 0.157033 0.523457
156 1 0.259144 0.136539 0.649134
221 1 0.384541 0.0501974 0.636859
309 2 0.45149 0.0117618 0.735812
285 1 0.459558 0.138402 0.754219
299 2 0.285345 0.0504678 0.56213
8 1 0.524661 0.145838 0.61111
295 2 0.679682 0.201292 0.619921
105 1 0.580714 0.0231086 0.685084
141 1 0.741541 0.0923929 0.664512
34 1 0.63925 0.183022 0.742087
153 1 0.558793 0.37832 0.523149
302 2 0.0445489 0.0160791 0.753292
297 2 0.783669 0.120193 0.536537
235 1 0.894203 0.162426 0.608034
199 1 0.866423 0.072186 0.751304
107 1 0.770728 0.254145 0.548386
232 1 0.784165 0.245463 0.697309
196 1 0.926775 0.363624 0.912559
177 1 0.0442284 0.264002 0.643767
212 1 0.205421 0.283807 0.711072
81 1 0.108042 0.419439 0.661141
321 2 0.184191 0.45346 0.551819
108 1 0.154076 0.325799 0.555992
13 1 0.394046 0.233301 0.652177
58 1 0.615773 0.232347 0.512693
160 1 0.450371 0.264094 0.516894
340 2 0.266605 0.253994 0.598231
272 1 0.31676 0.371863 0.580644
216 1 0.448572 0.402501 0.646312
66 1 0.262473 0.460822 0.686923
47 1 0.165099 0.468403 0.958037
191 1 0.616307 0.456549 0.642438
308 2 0.517968 0.290598 0.627498
338 2 0.690017 0.358173 0.547694
158 1 0.649953 0.314241 0.663273
346 2 0.508248 0.327552 0.995918
194 1 0.657247 0.0879061 0.529898
168 1 0.781921 0.405732 0.924712
16 1 0.770893 0.413844 0.64538
222 1 0.907286 0.332968 0.629667
249 1 0.72945 0.269155 0.831384
22 1 0.0970456 0.044907 0.974591
118 1 0.760243 0.0170542 0.966108
332 2 0.126947 0.117302 0.877061
23 1 0.102504 0.239606 0.810723
183 1 0.258859 0.119703 0.897165
355 2 0.846659 0.260497 0.903039
134 1 0.308264 0.0336105 0.773191
252 1 0.308871 0.195809 0.780324
82 1 0.405027 0.0998279 0.912673
32 1 0.378692 0.261169 0.966375
102 1 0.937371 0.476572 0.700154
181 1 0.528754 0.218578 0.895817
322 2 0.630298 0.0176986 0.931982
187 1 0.541725 0.0483199 0.840543
123 1 0.664039 0.153204 0.898628
151 1 0.696475 0.0281249 0.801218
294 2 0.751668 0.152083 0.778749
293 2 0.90993 0.496636 0.978419
350 2 0.619397 0.314009 0.792081
224 1 0.00522633 0.10979 0.817202
186 1 0.934817 0.0546054 0.953753
242 1 0.979441 0.203866 0.932903
245 1 0.908637 0.227883 0.795174
93 1 0.827304 0.130465 0.879286
24 1 0.00295069 0.354449 0.771505
39 1 0.0178807 0.477274 0.879441
257 1 0.15865 0.199432 0.979933
99 1 0.150662 0.396465 0.82159
19 1 0.0833136 0.326083 0.934225
263 1 0.246072 0.284389 0.885828
65 1 0.83542 0.369569 0.774766
298 2 0.407035 0.248311 0.8448
271 1 0.448599 0.388814 0.885503
74 1 0.295275 0.432945 0.900009
225 1 0.3523 0.349418 0.756675
36 1 0.503743 0.285936 0.760171
27 1 0.612153 0.346261 0.921048
275 1 0.543688 0.43755 0.771336
166 1 0.523632 0.457559 0.995623
174 1 0.692946 0.420425 0.792245