ITEM: TIMESTEP
0
ITEM: NUMBER OF ATOMS
360
ITEM: BOX BOUNDS pp pp pp
0.0000000000000000e+00 6.6943295008216896e+00
0.0000000000000000e+00 6.6943295008216896e+00
0.0000000000000000e+00 6.6943295008216896e+00
ITEM: ATOMS id type xs ys zs
282 1 0.210996 0.186515 0.197918
141 1 0.216449 0.162629 0.0309872
323 2 0.12005 0.136897 0.117645
179 1 0.0550833 0.0234218 0.152527
157 1 0.000945808 0.229201 0.0169107
245 1 0.190518 0.00698476 0.0742252
296 2 0.302471 0.205049 0.116493
238 1 0.426699 0.163111 0.157463
132 1 0.366252 0.104404 0.0300652
3 1 0.341698 0.0245739 0.160781
107 1 0.570572 0.122772 0.187373
227 1 0.678973 0.174068 0.0760356
300 2 0.691863 0.06897 0.147608
121 1 0.515748 0.143517 0.0239426
340 2 0.698743 0.189648 0.212373
225 1 0.759933 0.044452 0.0422706
84 1 0.807644 0.136411 0.17886
118 1 0.969121 0.144488 0.136084
35 1 0.840803 0.232445 0.049542
317 2 0.826066 0.0248706 0.24292
155 1 0.886755 0.0129403 0.140765
1 1 0.17116 0.377642 0.230632
53 1 0.162076 0.477285 0.0880125
102 1 0.0240311 0.436123 0.140038
82 1 0.0875229 0.255704 0.133404
50 1 0.234334 0.319699 0.0955679
320 2 0.470921 0.477269 0.147759
247 1 0.371315 0.404661 0.0435135
137 1 0.326083 0.435593 0.190061
63 1 0.397096 0.266876 0.0429226
4 1 0.472122 0.337705 0.203002
170 1 0.334794 0.267117 0.214945
259 1 0.552371 0.404651 0.0467911
189 1 0.568993 0.264756 0.11146
31 1 0.687564 0.415104 0.09479
122 1 0.5991 0.433739 0.236867
89 1 0.855327 0.445737 0.155843
205 1 0.762998 0.299829 0.163554
213 1 0.935945 0.381619 0.0282833
312 2 0.789854 0.355791 0.0584923
199 1 0.923959 0.30159 0.19209
302 2 0.18496 0.118878 0.491503
233 1 0.215253 0.0183765 0.255401
144 1 0.189237 0.141086 0.363141
14 1 0.062176 0.123624 0.267658
208 1 0.037595 0.16494 0.419987
116 1 0.250358 0.0182572 0.423002
346 2 0.438304 0.233657 0.447072
150 1 0.469424 0.0546833 0.271974
195 1 0.328534 0.11105 0.293379
260 1 0.483313 0.210391 0.310942
64 1 0.464361 0.0967965 0.420726
57 1 0.32673 0.159045 0.438114
306 2 0.250709 0.235388 0.323623
203 1 0.657895 0.0319745 0.433714
172 1 0.708489 0.0601422 0.267545
286 1 0.643861 0.168642 0.344327
298 2 0.583624 0.0644404 0.31597
104 1 0.559005 0.226132 0.469569
23 1 0.702695 0.176302 0.489972
218 1 0.902643 0.115393 0.302367
13 1 0.791173 0.233104 0.305642
319 2 0.754669 0.115166 0.376484
88 1 0.863192 0.166386 0.442566
130 1 0.176047 0.250335 0.474753
81 1 0.10845 0.265139 0.333366
10 1 0.0382695 0.315937 0.470471
214 1 0.0302771 0.387077 0.282938
175 1 0.228426 0.36822 0.381436
162 1 0.101723 0.449299 0.415911
83 1 0.470109 0.496956 0.433796
44 1 0.449376 0.488893 0.285233
151 1 0.259051 0.499378 0.326728
356 2 0.382678 0.424957 0.365624
272 1 0.35984 0.285684 0.366485
138 1 0.329982 0.451306 0.485939
330 2 0.571193 0.479114 0.353622
48 1 0.602293 0.428067 0.473641
341 2 0.739278 0.400881 0.255019
166 1 0.697565 0.31217 0.406804
70 1 0.620976 0.294353 0.260893
139 1 0.517828 0.356099 0.351885
178 1 0.702842 0.458928 0.361966
92 1 0.838149 0.388731 0.329622
169 1 0.840075 0.313888 0.470564
181 1 0.954761 0.255409 0.338686
212 1 0.931525 0.451431 0.424967
206 1 0.776201 0.471537 0.494561
251 1 0.0833668 0.221905 0.592685
303 2 0.170489 0.0780361 0.674993
30 1 0.247673 0.162322 0.593093
78 1 0.0983803 0.0361087 0.503752
202 1 0.0456012 0.0402263 0.652541
171 1 0.380272 0.0428407 0.535723
111 1 0.343181 0.0766328 0.674165
308 2 0.328544 0.244113 0.64775
134 1 0.44512 0.196623 0.580314
304 2 0.474631 0.0955737 0.639915
271 1 0.411754 0.202048 0.742395
131 1 0.562541 0.0791999 0.559739
106 1 0.706521 0.0984621 0.619967
326 2 0.616579 0.208323 0.586492
5 1 0.561723 0.172423 0.692273
196 1 0.702604 0.239311 0.687087
61 1 0.607421 0.00327699 0.704426
283 1 0.957737 0.182463 0.674654
349 2 0.877306 0.0888598 0.632543
129 1 0.826043 0.192676 0.581368
210 1 0.963192 0.103788 0.540169
72 1 0.810877 0.0494482 0.519397
29 1 0.818211 0.149604 0.736275
299 2 0.939341 0.233555 0.513843
119 1 0.198549 0.290101 0.665433
332 2 0.0827168 0.351393 0.623605
252 1 0.0424326 0.302025 0.727596
79 1 0.185133 0.39889 0.538664
173 1 0.149311 0.43567 0.679694
9 1 0.030281 0.46503 0.559971
231 1 0.419232 0.338117 0.657458
269 1 0.312518 0.293015 0.52363
80 1 0.297074 0.441337 0.646914
193 1 0.448418 0.348048 0.501815
11 1 0.50671 0.451587 0.611459
243 1 0.591977 0.454411 0.739602
207 1 0.705363 0.338818 0.565661
163 1 0.559252 0.310635 0.604347
71 1 0.672842 0.48771 0.601386
145 1 0.724444 0.375069 0.729705
321 2 0.808344 0.308696 0.635849
156 1 0.948728 0.329475 0.590701
246 1 0.968333 0.444168 0.707913
38 1 0.833838 0.442556 0.632183
165 1 0.882837 0.306991 0.74165
236 1 0.0983782 0.163609 0.7533
95 1 0.169443 0.112319 0.882027
310 2 0.0311563 0.111361 0.86729
242 1 0.0654027 0.24259 0.881408
133 1 0.240674 0.0133443 0.762816
108 1 0.0862045 0.00763585 0.800288
288 1 0.0664863 0.0815704 0.994289
305 2 0.124128 0.248404 0.991023
313 2 0.280047 0.0290685 0.936392
314 2 0.447279 0.0310586 0.924389
258 1 0.254471 0.180051 0.766345
74 1 0.468745 0.0431077 0.762321
267 1 0.35067 0.106512 0.862423
350 2 0.303852 0.199505 0.960497
43 1 0.564052 0.0071747 0.885193
12 1 0.515822 0.156425 0.859469
311 2 0.70464 0.0256489 0.932336
219 1 0.687263 0.100932 0.776872
19 1 0.657532 0.14216 0.919296
345 2 0.824653 0.175679 0.933261
161 1 0.829139 0.0593405 0.860936
192 1 0.916921 0.190432 0.851718
167 1 0.948163 0.042915 0.755261
280 1 0.907657 0.081233 0.993531
42 1 0.220481 0.279036 0.912962
222 1 0.0893172 0.361724 0.996936
359 2 0.169605 0.279841 0.789258
115 1 0.151487 0.388495 0.841867
339 2 0.217017 0.391021 0.986099
60 1 0.387969 0.255773 0.882848
160 1 0.307894 0.331844 0.760028
198 1 0.313956 0.39682 0.903857
197 1 0.458108 0.414081 0.912783
109 1 0.411845 0.449101 0.760654
352 2 0.612486 0.252088 0.847313
7 1 0.520649 0.31849 0.776417
273 1 0.613656 0.401303 0.885747
257 1 0.555004 0.273155 0.961817
54 1 0.742935 0.254717 0.834461
281 1 0.698775 0.302055 0.982456
110 1 0.856809 0.309001 0.923338
99 1 0.848815 0.436371 0.805266
185 1 0.97982 0.378851 0.856331
90 1 0.769588 0.460356 0.971245
338 2 0.7522 0.383753 0.859533
353 2 0.889884 0.474656 0.925473
230 1 0.180271 0.643217 0.166764
329 2 0.133954 0.588384 0.0196824
113 1 0.0699861 0.749176 0.158755
22 1 0.0772166 0.726052 0.00504581
186 1 0.0333233 0.601574 0.111066
295 2 0.227448 0.527878 0.194295
255 1 0.442051 0.609374 0.169229
275 1 0.331717 0.723442 0.151027
253 1 0.313344 0.556667 0.0997603
91 1 0.396191 0.662996 0.0375534
263 1 0.474682 0.53725 0.027197
32 1 0.58796 0.556647 0.133629
158 1 0.708757 0.525419 0.219337
85 1 0.539467 0.723965 0.147575
148 1 0.690049 0.676536 0.190567
73 1 0.739302 0.582557 0.0731547
62 1 0.853828 0.60819 0.179724
315 2 0.830678 0.669135 0.0360776
217 1 0.938126 0.717508 0.0959561
77 1 0.901564 0.55775 0.0415533
59 1 0.21525 0.801957 0.0531358
229 1 0.143107 0.891695 0.177798
358 2 0.20403 0.773933 0.204464
232 1 0.0727266 0.892644 0.0152034
278 1 0.319204 0.922516 0.0298974
249 1 0.453284 0.908048 0.224518
183 1 0.300466 0.888058 0.228695
100 1 0.432047 0.816346 0.0829049
94 1 0.466432 0.991461 0.0865449
344 2 0.546623 0.87964 0.135354
26 1 0.661999 0.831183 0.117968
336 2 0.708407 0.805009 0.237565
221 1 0.59251 0.981321 0.194218
52 1 0.614467 0.983108 0.0368183
289 2 0.561358 0.800043 0.0346367
261 1 0.97437 0.870432 0.155582
360 2 0.943788 0.767264 0.232228
136 1 0.885708 0.885892 0.0335374
211 1 0.755273 0.94321 0.163251
146 1 0.805319 0.764319 0.142109
351 2 0.97464 0.976143 0.0494268
354 2 0.974718 0.80654 0.0197753
220 1 0.116787 0.520133 0.250828
292 2 0.218614 0.646532 0.297923
47 1 0.158387 0.589335 0.385787
215 1 0.128906 0.73704 0.317065
93 1 0.00120857 0.590027 0.409307
204 1 0.219103 0.723079 0.47022
297 2 0.207382 0.500808 0.454621
27 1 0.32129 0.605427 0.251934
96 1 0.480217 0.694231 0.498203
17 1 0.314667 0.594887 0.440008
51 1 0.444405 0.619342 0.355568
244 1 0.291357 0.742696 0.306906
164 1 0.440262 0.747954 0.268549
24 1 0.573716 0.609979 0.277741
294 2 0.561658 0.682885 0.402184
250 1 0.664097 0.729097 0.337947
87 1 0.618092 0.575981 0.423419
293 2 0.713579 0.616805 0.311851
357 2 0.734516 0.624186 0.454973
55 1 0.653686 0.720386 0.489952
143 1 0.997706 0.657277 0.258443
200 1 0.940075 0.510413 0.282123
191 1 0.94299 0.749265 0.391008
149 1 0.829237 0.564996 0.372096
184 1 0.824032 0.709011 0.487801
46 1 0.835725 0.716117 0.292193
194 1 0.0620006 0.756176 0.468781
223 1 0.0720677 0.982959 0.361084
325 2 0.0621609 0.886706 0.449528
68 1 0.201342 0.874432 0.334851
254 1 0.0264342 0.850735 0.303642
75 1 0.180018 0.884206 0.483754
331 2 0.301404 0.908239 0.440184
355 2 0.383242 0.845361 0.324501
97 1 0.353317 0.783409 0.436434
36 1 0.432397 0.911305 0.469005
209 1 0.374744 0.978369 0.349836
123 1 0.579508 0.830352 0.25855
241 1 0.66044 0.878673 0.436331
114 1 0.539084 0.957884 0.370477
266 1 0.518119 0.805385 0.39962
86 1 0.69874 0.914846 0.298081
324 2 0.574692 0.960885 0.491448
140 1 0.809821 0.833954 0.414137
333 2 0.917964 0.882551 0.372672
125 1 0.823727 0.985183 0.384715
65 1 0.847955 0.872332 0.261407
152 1 0.955213 0.972254 0.468314
21 1 0.952979 0.984878 0.270034
8 1 0.170082 0.639484 0.679918
101 1 0.239925 0.564333 0.565992
190 1 0.0870864 0.625261 0.53273
226 1 0.0340028 0.737778 0.62597
290 2 0.118429 0.539275 0.623666
343 2 0.462985 0.658918 0.633121
284 1 0.337198 0.606435 0.691202
98 1 0.484072 0.568556 0.709546
285 1 0.330084 0.708128 0.573764
40 1 0.406498 0.564718 0.566088
234 1 0.607097 0.729342 0.649865
56 1 0.640588 0.594754 0.727212
41 1 0.561871 0.601074 0.577826
348 2 0.742124 0.502694 0.705979
124 1 0.990722 0.590599 0.650179
182 1 0.752842 0.720537 0.710846
188 1 0.759211 0.622577 0.592844
39 1 0.883649 0.720238 0.633336
265 1 0.851315 0.573846 0.722474
49 1 0.893509 0.581872 0.530253
327 2 0.958761 0.686876 0.504949
279 1 0.182818 0.785756 0.612433
248 1 0.0581969 0.907865 0.576683
76 1 0.155532 0.914304 0.698298
287 1 0.0216603 0.862422 0.74197
268 1 0.231967 0.997686 0.576897
16 1 0.489538 0.953959 0.609908
2 1 0.294563 0.764627 0.710518
235 1 0.44439 0.800033 0.676276
126 1 0.316698 0.858327 0.568485
142 1 0.363496 0.933254 0.715157
291 2 0.422658 0.795134 0.545467
309 2 0.676818 0.833714 0.581007
176 1 0.689099 0.864918 0.69826
33 1 0.676811 0.957025 0.57034
328 2 0.564746 0.855819 0.664374
239 1 0.547922 0.827738 0.544532
67 1 0.842293 0.840653 0.725626
307 2 0.94844 0.834794 0.642295
6 1 0.901537 0.945718 0.62414
276 1 0.795699 0.837909 0.575959
216 1 0.935527 0.824328 0.518135
277 1 0.778743 0.993942 0.709212
301 2 0.841658 0.930367 0.506179
174 1 0.19019 0.503029 0.930375
262 1 0.0141981 0.681435 0.77063
69 1 0.115213 0.632168 0.889854
153 1 0.0412562 0.51219 0.986794
135 1 0.0845649 0.533729 0.771996
180 1 0.240026 0.659039 0.990897
316 2 0.3977 0.699077 0.758291
337 2 0.377166 0.558671 0.814564
34 1 0.270641 0.65389 0.837481
177 1 0.338815 0.538265 0.940822
18 1 0.418639 0.661557 0.880282
147 1 0.259782 0.502152 0.790584
58 1 0.515623 0.706496 0.774512
128 1 0.709708 0.51286 0.844153
228 1 0.514423 0.537711 0.858186
28 1 0.645893 0.657535 0.8701
105 1 0.549653 0.662277 0.985965
342 2 0.749256 0.64258 0.805505
168 1 0.629064 0.52749 0.983865
45 1 0.69636 0.740165 0.990548
240 1 0.95426 0.537229 0.840834
264 1 0.962698 0.652592 0.940713
103 1 0.873513 0.715469 0.813082
37 1 0.802937 0.614048 0.923164
256 1 0.134076 0.771974 0.755845
187 1 0.170072 0.778569 0.903466
112 1 0.0132079 0.788716 0.882318
335 2 0.123664 0.877024 0.831448
25 1 0.170935 0.967797 0.926305
120 1 0.478348 0.897194 0.958845
347 2 0.441175 0.758171 0.947374
20 1 0.255105 0.866085 0.811455
154 1 0.363198 0.95543 0.871715
159 1 0.410422 0.809415 0.825144
237 1 0.321126 0.801199 0.942306
117 1 0.540884 0.885939 0.785934
127 1 0.740511 0.903068 0.985108
274 1 0.566027 0.78249 0.895825
15 1 0.694787 0.94036 0.839446
322 2 0.636024 0.768703 0.761927
201 1 0.726185 0.792703 0.845381
318 2 0.626977 0.885516 0.933005
334 2 0.84001 0.977406 0.958213
66 1 0.84464 0.876697 0.869561
224 1 0.854008 0.752837 0.959881
270 1 0.974793 0.962815 0.908677
ITEM: TIMESTEP
300000
ITEM: NUMBER OF ATOMS
360
ITEM: BOX BOUNDS pp pp pp
0.0000000000000000e+00 6.6943295008216896e+00
0.0000000000000000e+00 6.6943295008216896e+00
0.0000000000000000e+00 6.6943295008216896e+00
ITEM: ATOMS id type xs ys zs
133 1 0.11105 0.124088 0.0746936
179 1 0.0155416 0.12354 0.202688
170 1 0.119077 0.236017 0.197463
339 2 0.0853806 0.236124 0.0290616
50 1 0.215779 0.23514 0.0601704
238 1 0.434731 0.48389 0.161335
122 1 0.368559 0.157223 0.0388984
94 1 0.451643 0.0387183 0.143001
356 2 0.336899 0.262991 0.101437
25 1 0.263197 0.0887813 0.122577
150 1 0.320243 0.189109 0.222321
282 1 0.474755 0.187091 0.149178
172 1 0.734503 0.0753057 0.170599
205 1 0.588758 0.0851703 0.074013
3 1 0.577697 0.105629 0.239343
107 1 0.634152 0.248737 0.216759
161 1 0.694124 0.19743 0.0653108
196 1 0.822914 0.292092 0.492754
89 1 0.973291 0.0252358 0.0904985
110 1 0.894881 0.170634 0.126422
329 2 0.86596 0.042018 0.154802
14 1 0.787886 0.258164 0.198163
70 1 0.431576 0.297486 0.0166344
104 1 0.749689 0.318332 0.350778
118 1 0.129303 0.359713 0.0485371
175 1 0.0481296 0.396979 0.179458
92 1 0.920968 0.443938 0.330099
341 2 0.429834 0.419881 0.0583028
247 1 0.298994 0.382172 0.0367392
141 1 0.400189 0.326837 0.193374
57 1 0.238765 0.327089 0.172996
44 1 0.327573 0.46553 0.273638
62 1 0.569357 0.453104 0.0419894
346 2 0.525082 0.338065 0.224567
31 1 0.550664 0.309429 0.100525
63 1 0.589486 0.460121 0.203347
37 1 0.701028 0.362872 0.119177
322 2 0.665574 0.370228 0.265043
199 1 0.993707 0.279373 0.105695
217 1 0.832364 0.46159 0.079745
230 1 0.973684 0.41082 0.0269016
73 1 0.902711 0.370173 0.191095
166 1 0.821498 0.303342 0.055843
200 1 0.774241 0.461252 0.252466
223 1 0.180559 0.100663 0.240071
306 2 0.084494 0.182903 0.303261
171 1 0.17574 0.121294 0.398491
169 1 0.957075 0.372344 0.460147
218 1 0.895784 0.293059 0.328699
91 1 0.197624 0.472007 0.151941
209 1 0.428298 0.109898 0.360814
291 2 0.294431 0.126193 0.341188
68 1 0.333613 0.0257661 0.245348
116 1 0.314474 0.0823781 0.467127
308 2 0.379013 0.19636 0.476443
80 1 0.496564 0.260863 0.447699
176 1 0.74508 0.154723 0.471012
286 1 0.504272 0.226386 0.305489
23 1 0.578126 0.117807 0.398397
300 2 0.656028 0.226997 0.405215
13 1 0.72103 0.148283 0.317001
312 2 0.952513 0.222724 0.234604
84 1 0.876334 0.119338 0.269902
152 1 0.987432 0.167908 0.377804
298 2 0.84834 0.186617 0.393634
125 1 0.797231 0.0235742 0.376452
301 2 0.93688 0.0408015 0.369178
206 1 0.810769 0.450938 0.448097
162 1 0.170358 0.39353 0.28779
81 1 0.212222 0.24143 0.320094
144 1 0.0975062 0.2656 0.453359
214 1 0.0434532 0.308437 0.30851
130 1 0.0933788 0.422571 0.422603
4 1 0.36532 0.249805 0.363133
65 1 0.0738887 0.0169883 0.350261
41 1 0.272221 0.362562 0.410626
272 1 0.449068 0.378514 0.324377
355 2 0.315451 0.340284 0.296314
323 2 0.552957 0.467609 0.332765
250 1 0.673384 0.464697 0.371455
276 1 0.683426 0.328971 0.483208
260 1 0.597653 0.340226 0.360799
269 1 0.5348 0.434842 0.470977
342 2 0.0733023 0.489712 0.0982542
354 2 0.330602 0.416048 0.154215
88 1 0.898216 0.103273 0.483413
79 1 0.25316 0.234656 0.486227
222 1 0.164228 0.228131 0.613251
242 1 0.172977 0.0493662 0.629242
328 2 0.186584 0.132677 0.523259
296 2 0.0737282 0.140243 0.666917
78 1 0.302464 0.136309 0.612389
333 2 0.41182 0.0816139 0.646565
131 1 0.4629 0.118549 0.524921
30 1 0.395972 0.248413 0.605899
95 1 0.195689 0.0150204 0.81521
40 1 0.559259 0.479387 0.652227
258 1 0.519334 0.154087 0.657396
134 1 0.612938 0.193254 0.53457
52 1 0.619735 0.0658291 0.723977
302 2 0.712047 0.267172 0.586517
64 1 0.582768 0.0390074 0.561011
353 2 0.926757 0.300285 0.976021
277 1 0.0125259 0.0370329 0.646101
157 1 0.816179 0.132925 0.976114
108 1 0.974015 0.237574 0.680624
309 2 0.756698 0.0668425 0.719856
16 1 0.312864 0.00766078 0.698019
12 1 0.704666 0.112774 0.612398
345 2 0.925814 0.13324 0.609489
219 1 0.89265 0.127795 0.740062
48 1 0.397191 0.36726 0.50053
240 1 0.808294 0.278768 0.910624
204 1 0.0525315 0.345049 0.613375
252 1 0.173183 0.347376 0.720594
320 2 0.7064 0.297133 0.992384
129 1 0.964554 0.229799 0.521843
156 1 0.0316052 0.378105 0.765135
303 2 0.276263 0.238673 0.683443
236 1 0.276969 0.342297 0.611226
160 1 0.411304 0.388009 0.691494
318 2 0.465321 0.264304 0.72027
332 2 0.449383 0.453982 0.570673
53 1 0.278899 0.456492 0.728938
9 1 0.19368 0.459582 0.556315
193 1 0.68162 0.488196 0.532423
34 1 0.631297 0.266122 0.682288
109 1 0.535509 0.336733 0.590355
340 2 0.650087 0.389279 0.612336
231 1 0.703682 0.461053 0.725261
7 1 0.541961 0.35846 0.75808
319 2 0.772335 0.0413136 0.520952
284 1 0.0640261 0.47597 0.900975
207 1 0.786358 0.389808 0.603507
299 2 0.904627 0.317702 0.589406
163 1 0.822886 0.212549 0.62353
106 1 0.919761 0.426392 0.669768
321 2 0.733763 0.336469 0.704274
280 1 0.0589526 0.0289075 0.927872
283 1 0.0366708 0.0881401 0.787287
295 2 0.843503 0.413423 0.959401
268 1 0.216524 0.147605 0.751756
20 1 0.138078 0.174639 0.922383
5 1 0.378684 0.170053 0.742217
127 1 0.471195 0.0431419 0.759936
42 1 0.268834 0.0750513 0.960417
305 2 0.314145 0.0837918 0.822959
137 1 0.300371 0.216726 0.917057
257 1 0.429782 0.122914 0.883889
153 1 0.796367 0.429272 0.833215
29 1 0.842646 0.301436 0.754374
271 1 0.581956 0.0684436 0.89179
111 1 0.559232 0.19477 0.799736
54 1 0.546389 0.200619 0.984226
90 1 0.676754 0.203225 0.913404
145 1 0.738254 0.185748 0.757722
349 2 0.820428 0.138133 0.848505
15 1 0.731573 0.0545288 0.847658
99 1 0.940744 0.213343 0.864503
261 1 0.918417 0.0550844 0.877217
360 2 0.165153 0.333111 0.536554
343 2 0.204395 0.240503 0.837358
310 2 0.175324 0.429663 0.819319
208 1 0.0686995 0.109491 0.522084
246 1 0.0842999 0.238998 0.797201
82 1 0.196399 0.348518 0.91176
102 1 0.0532807 0.301523 0.923926
263 1 0.291524 0.46524 0.886935
115 1 0.307713 0.304008 0.793525
350 2 0.342519 0.344214 0.91596
60 1 0.443139 0.284414 0.855126
243 1 0.439396 0.427727 0.92217
326 2 0.37702 0.431048 0.809812
103 1 0.931959 0.37575 0.876476
273 1 0.463439 0.00643599 0.987998
165 1 0.713446 0.42535 0.96424
281 1 0.582357 0.336997 0.943205
11 1 0.679421 0.326018 0.823992
348 2 0.685714 0.0979 0.980552
119 1 0.131921 0.493196 0.696157
213 1 0.979382 0.154925 0.996875
317 2 0.89896 0.442097 0.546022
338 2 0.94012 0.012903 0.740213
98 1 0.6192 0.485017 0.858593
327 2 0.279524 0.0149434 0.572371
251 1 0.0328306 0.496019 0.570995
167 1 0.858716 0.0157055 0.618967
1 1 0.0862188 0.623723 0.16355
93 1 0.192868 0.573373 0.270867
239 1 0.478701 0.984622 0.445465
151 1 0.238118 0.614229 0.109002
32 1 0.398282 0.626519 0.155224
183 1 0.253193 0.733085 0.257897
314 2 0.514323 0.920817 0.159476
35 1 0.816238 0.99544 0.0525031
259 1 0.351487 0.53167 0.0322813
105 1 0.556613 0.60191 0.103113
228 1 0.707561 0.670623 0.105244
18 1 0.588657 0.707969 0.21682
45 1 0.692435 0.511521 0.115691
347 2 0.737052 0.690659 0.236158
185 1 0.165228 0.50512 0.00261609
136 1 0.81909 0.594724 0.206347
77 1 0.865328 0.631052 0.0556163
289 2 0.921853 0.666737 0.1637
27 1 0.955131 0.524606 0.150549
344 2 0.857441 0.848474 0.245604
113 1 0.130466 0.795866 0.163299
313 2 0.0153245 0.896085 0.176942
233 1 0.235381 0.914179 0.188222
21 1 0.0527193 0.877755 0.0492981
143 1 0.138536 0.726064 0.0255649
195 1 0.171922 0.979058 0.0267339
245 1 0.314459 0.770316 0.103686
278 1 0.481537 0.765339 0.111941
100 1 0.395221 0.889286 0.18924
189 1 0.339412 0.960406 0.0579645
330 2 0.598637 0.805298 0.133516
28 1 0.724868 0.826252 0.0324264
120 1 0.550175 0.843938 0.266466
270 1 0.645732 0.947267 0.146114
121 1 0.561434 0.883034 0.0292796
227 1 0.703964 0.822177 0.22549
201 1 0.976117 0.740746 0.0790916
83 1 0.420897 0.509379 0.402547
138 1 0.24134 0.628707 0.485567
146 1 0.821632 0.757496 0.157996
211 1 0.899446 0.88898 0.129715
334 2 0.771341 0.887088 0.131163
224 1 0.785543 0.962549 0.237942
47 1 0.0980728 0.702395 0.311106
335 2 0.21478 0.670473 0.371035
279 1 0.0676574 0.583886 0.420874
97 1 0.118906 0.722681 0.460706
220 1 0.0462328 0.510255 0.280412
297 2 0.361525 0.621521 0.457368
164 1 0.324286 0.620703 0.329747
255 1 0.50966 0.577803 0.274249
85 1 0.456011 0.674795 0.400657
17 1 0.304708 0.753771 0.430709
10 1 0.232496 0.505285 0.397973
357 2 0.857037 0.803842 0.423114
158 1 0.665212 0.590641 0.274384
24 1 0.574615 0.581058 0.410869
324 2 0.54302 0.743425 0.349517
139 1 0.671042 0.729483 0.360842
148 1 0.713516 0.622466 0.467406
38 1 0.976005 0.755872 0.383002
181 1 0.931822 0.547603 0.469494
212 1 0.817225 0.582777 0.354619
46 1 0.831593 0.732004 0.314008
178 1 0.949595 0.633371 0.293997
254 1 0.0661541 0.876745 0.290019
215 1 0.06785 0.877971 0.439075
123 1 0.188791 0.822637 0.362185
248 1 0.229346 0.970136 0.336754
235 1 0.440821 0.83433 0.451993
249 1 0.478841 0.992548 0.287286
76 1 0.15951 0.988015 0.485903
244 1 0.4254 0.735707 0.255058
126 1 0.350921 0.864712 0.324838
33 1 0.567974 0.73149 0.500191
186 1 0.962728 0.77573 0.226861
26 1 0.591874 0.864463 0.436004
114 1 0.639929 0.962238 0.315475
221 1 0.681816 0.9835 0.461004
216 1 0.854334 0.68558 0.491614
226 1 0.903011 0.904257 0.353607
203 1 0.74852 0.863458 0.359064
293 2 0.359478 0.997791 0.368541
225 1 0.103746 0.991374 0.175979
36 1 0.304901 0.920877 0.481492
155 1 0.94703 0.987065 0.242664
274 1 0.598424 0.729808 0.0105179
264 1 0.0239931 0.582683 0.0197225
198 1 0.411066 0.683432 0.00334343
229 1 0.861625 0.794098 0.0030712
182 1 0.736942 0.790127 0.497421
256 1 0.114031 0.670512 0.681618
173 1 0.238945 0.598695 0.643321
307 2 0.128525 0.586831 0.554137
191 1 0.0130507 0.653293 0.554152
75 1 0.2271 0.748654 0.568805
232 1 0.249576 0.722477 0.738235
290 2 0.164505 0.855333 0.508407
159 1 0.387556 0.698703 0.555961
117 1 0.400245 0.53332 0.663392
187 1 0.419667 0.740159 0.715358
87 1 0.486691 0.575535 0.529382
294 2 0.512542 0.692028 0.603107
86 1 0.62704 0.620607 0.593307
149 1 0.531081 0.618962 0.721404
168 1 0.68547 0.603036 0.745204
351 2 0.631393 0.704637 0.692146
56 1 0.761899 0.689041 0.63186
51 1 0.84041 0.546844 0.593088
241 1 0.977617 0.596153 0.696942
336 2 0.826019 0.522888 0.733298
190 1 0.930096 0.747581 0.671397
67 1 0.826036 0.94327 0.755257
188 1 0.475727 0.510426 0.797978
331 2 0.150332 0.802027 0.716765
285 1 0.211836 0.904927 0.608363
325 2 0.0817642 0.943489 0.584735
194 1 0.0774961 0.801258 0.585541
202 1 0.0997683 0.930343 0.719665
352 2 0.53118 0.789649 0.9032
135 1 0.89138 0.797894 0.831598
266 1 0.490009 0.816267 0.599444
74 1 0.417022 0.97609 0.588381
142 1 0.347788 0.834339 0.621369
61 1 0.548729 0.936892 0.680895
66 1 0.655235 0.817893 0.640861
304 2 0.550435 0.914303 0.558367
96 1 0.706311 0.965438 0.626254
22 1 0.981036 0.919645 0.823548
6 1 0.96263 0.90076 0.658691
184 1 0.815233 0.836867 0.64079
140 1 0.94731 0.811372 0.525654
101 1 0.336043 0.522281 0.527026
359 2 0.0439262 0.52417 0.776246
174 1 0.202266 0.576836 0.800895
147 1 0.0577652 0.635291 0.836532
177 1 0.180061 0.754142 0.87297
358 2 0.137618 0.616015 0.946097
55 1 0.680822 0.926191 0.778565
292 2 0.276311 0.750883 0.970293
262 1 0.269012 0.624478 0.942499
311 2 0.385189 0.571087 0.911874
2 1 0.352166 0.608219 0.791363
253 1 0.472668 0.676594 0.851971
112 1 0.788763 0.909822 0.902454
197 1 0.517415 0.565243 0.959553
265 1 0.623555 0.680973 0.872789
337 2 0.722765 0.590037 0.865866
71 1 0.667175 0.576048 0.989338
316 2 0.940983 0.501987 0.940234
124 1 0.755337 0.696305 0.938645
315 2 0.95649 0.687039 0.793509
59 1 0.932028 0.928417 0.971885
128 1 0.824528 0.652754 0.782348
69 1 0.816708 0.54093 0.946848
180 1 0.92605 0.661084 0.913717
49 1 0.92253 0.533036 0.819664
287 1 0.0162236 0.79085 0.916633
8 1 0.039755 0.784628 0.767836
288 1 0.122618 0.893492 0.884652
275 1 0.343329 0.757763 0.850272
132 1 0.25919 0.869931 0.760179
267 1 0.370647 0.967568 0.861157
19 1 0.281495 0.883922 0.943005
43 1 0.419236 0.88183 0.762309
154 1 0.427293 0.850382 0.964876
234 1 0.657633 0.821629 0.889938
39 1 0.73282 0.775333 0.763166
58 1 0.564581 0.794074 0.776575
192 1 0.66946 0.973894 0.976209
237 1 0.533271 0.926401 0.868376
210 1 0.982279 0.972732 0.509096
72 1 0.822262 0.914908 0.506652
ITEM: TIMESTEP
600000
ITEM: NUMBER OF ATOMS
360
ITEM: BOX BOUNDS pp pp pp
0.0000000000000000e+00 6.6943295008216896e+00
0.0000000000000000e+00 6.6943295008216896e+00
0.0000000000000000e+00 6.6943295008216896e+00
ITEM: ATOMS id type xs ys zs
179 1 0.105018 0.139141 0.0436602
152 1 0.0689051 0.189418 0.20567
138 1 0.143568 0.0380108 0.187598
272 1 0.210943 0.200898 0.147764
146 1 0.246491 0.0681586 0.0572943
122 1 0.379471 0.148941 0.0953685
291 2 0.469487 0.164569 0.236131
50 1 0.296608 0.0989952 0.211712
150 1 0.365537 0.243974 0.222224
126 1 0.435065 0.0394234 0.223619
273 1 0.524941 0.100469 0.118626
356 2 0.619977 0.183441 0.119942
270 1 0.664328 0.0436934 0.115881
172 1 0.721495 0.153617 0.207767
141 1 0.716525 0.17968 0.0347617
23 1 0.598788 0.061563 0.26986
321 2 0.764182 0.0217465 0.199726
15 1 0.994115 0.0742353 0.125265
333 2 0.961735 0.164582 0.277393
90 1 0.839163 0.119028 0.117161
133 1 0.974558 0.217488 0.0750773
73 1 0.829538 0.276705 0.0971928
14 1 0.860226 0.242371 0.250245
162 1 0.970657 0.325729 0.185663
213 1 0.101821 0.292086 0.0337512
259 1 0.228185 0.412201 0.101791
289 2 0.0477143 0.400957 0.101982
123 1 0.128654 0.336379 0.190124
312 2 0.910512 0.387323 0.307672
247 1 0.366702 0.307537 0.0776309
255 1 0.3821 0.423039 0.187137
360 2 0.261273 0.318862 0.219337
70 1 0.492242 0.259566 0.142235
44 1 0.53992 0.413222 0.131437
57 1 0.660875 0.304891 0.104292
31 1 0.709532 0.453577 0.125075
300 2 0.749674 0.283271 0.200924
349 2 0.885931 0.0199873 0.0514829
207 1 0.857191 0.299592 0.415353
348 2 0.865688 0.444053 0.0827894
27 1 0.825351 0.39564 0.198555
306 2 0.909879 0.00779554 0.368949
92 1 0.96907 0.484453 0.158816
199 1 0.951103 0.362515 0.0205321
235 1 0.2158 0.112629 0.482349
4 1 0.0993499 0.122368 0.364569
81 1 0.151886 0.252636 0.437365
170 1 0.23977 0.214636 0.306742
131 1 0.456537 0.0822807 0.495072
169 1 0.936984 0.440074 0.421817
355 2 0.48736 0.0418482 0.364808
204 1 0.986876 0.276425 0.483248
30 1 0.367695 0.114664 0.370118
116 1 0.322976 0.237757 0.45493
209 1 0.506597 0.181803 0.359587
205 1 0.58961 0.222086 0.24766
319 2 0.50809 0.207687 0.484287
26 1 0.600661 0.072846 0.430977
323 2 0.626869 0.183575 0.370498
13 1 0.732699 0.0975814 0.355021
107 1 0.731133 0.257536 0.329254
208 1 0.995681 0.278251 0.324275
176 1 -0.00066623 0.0415852 0.277445
134 1 0.853918 0.0889886 0.271265
171 1 0.952551 0.134432 0.406764
302 2 0.833304 0.183727 0.368721
226 1 0.83211 0.0450114 0.460426
212 1 0.108109 0.47309 0.437879
318 2 0.066418 0.353438 0.410449
342 2 0.12289 0.270079 0.296017
214 1 0.194645 0.37649 0.334413
130 1 0.0390801 0.442909 0.291702
36 1 0.226003 0.039719 0.34169
160 1 0.383001 0.485441 0.467295
163 1 0.452175 0.327598 0.470286
48 1 0.490254 0.360894 0.264827
83 1 0.350826 0.368448 0.338542
293 2 0.398185 0.243117 0.34612
340 2 0.475239 0.414759 0.384202
41 1 0.267007 0.374904 0.482312
286 1 0.65443 0.370179 0.251159
260 1 0.671104 0.444102 0.437081
299 2 0.705463 0.319405 0.442908
80 1 0.583463 0.313794 0.396595
203 1 0.567089 0.487945 0.299661
310 2 0.562297 0.400437 0.49307
219 1 0.698283 0.18366 0.476975
161 1 0.787413 0.408129 0.338868
164 1 0.250659 0.496964 0.242185
196 1 0.809717 0.433832 0.493694
246 1 0.0989558 0.214327 0.590298
78 1 0.00936587 0.119247 0.703885
132 1 0.260158 0.071354 0.628185
9 1 0.167069 0.169884 0.734049
76 1 0.223059 0.00596706 0.779209
74 1 0.289574 0.218221 0.616268
242 1 0.421461 0.112534 0.640765
283 1 0.440998 0.252759 0.59402
296 2 0.334875 0.128244 0.51971
327 2 0.53189 0.12136 0.719084
303 2 0.294946 0.141289 0.735097
350 2 0.206254 0.278037 0.549459
34 1 0.571429 0.141266 0.591309
222 1 0.714333 0.178085 0.642809
266 1 0.633021 0.0378353 0.721824
243 1 0.468776 0.456173 0.877279
69 1 0.8594 0.378715 0.852618
167 1 0.756597 0.0253071 0.618465
64 1 0.843557 0.189175 0.532273
298 2 0.972358 0.175469 0.575185
218 1 0.918766 0.0537189 0.593933
284 1 0.863626 0.152158 0.698467
51 1 0.100684 0.3662 0.547236
119 1 0.0965195 0.447053 0.69544
174 1 0.0815881 0.300376 0.73577
149 1 0.220686 0.366536 0.667511
320 2 0.921554 0.136214 0.97848
236 1 0.355024 0.416471 0.610241
109 1 0.495759 0.406871 0.598498
258 1 0.421892 0.34154 0.731611
52 1 0.552931 0.260553 0.699066
231 1 0.643043 0.449554 0.584308
12 1 0.581613 0.283258 0.550147
153 1 0.700454 0.35247 0.706002
144 1 0.957891 0.432203 0.583941
331 2 0.888941 0.341457 0.541953
256 1 0.958072 0.410575 0.737966
251 1 0.944771 0.282428 0.645831
156 1 0.750542 0.306947 0.560576
241 1 0.828307 0.414564 0.661016
317 2 0.818644 0.274866 0.695771
99 1 0.928789 0.256346 0.794103
53 1 0.129499 0.487951 0.852193
267 1 0.112031 0.0896811 0.880024
343 2 0.0489027 0.188895 0.816005
280 1 0.00866636 0.21228 0.937102
194 1 0.0613913 0.0858288 0.522367
89 1 0.9916 0.0232245 0.977436
10 1 0.0810129 0.447707 0.992674
337 2 0.843973 0.482573 0.927461
43 1 0.377062 0.0506433 0.969066
16 1 0.417295 0.18036 0.771692
268 1 0.259605 0.130982 0.860222
257 1 0.418352 0.200995 0.951676
271 1 0.510625 0.0883002 0.870195
240 1 0.628868 0.171624 0.809537
106 1 0.659586 0.0576753 0.932929
55 1 0.563476 0.184371 0.99935
345 2 0.723597 0.174055 0.9011
25 1 0.843528 0.242429 0.944087
157 1 0.816736 0.0837746 0.953278
261 1 0.768471 0.0728856 0.796789
145 1 0.931809 0.11173 0.847776
137 1 0.364585 0.0207564 0.812302
29 1 0.772975 0.253407 0.80675
82 1 0.158267 0.249523 0.874649
175 1 0.221047 0.366125 0.947697
102 1 0.0293237 0.358747 0.880295
308 2 0.170637 0.352079 0.809522
252 1 0.273919 0.2731 0.775049
115 1 0.262698 0.455515 0.786755
60 1 0.368944 0.335251 0.890854
188 1 0.616835 0.441499 0.998095
165 1 0.762915 0.378167 0.997216
326 2 0.574467 0.384291 0.875866
98 1 0.705245 0.421597 0.853284
166 1 0.668327 0.287535 0.928414
281 1 0.546499 0.422766 0.755798
11 1 0.513626 0.270759 0.849772
336 2 0.645726 0.295808 0.80609
54 1 0.503424 0.336584 0.995957
59 1 0.108912 0.0160426 0.663414
347 2 0.690402 0.0650031 0.518596
263 1 0.351648 0.444667 0.993425
118 1 0.258623 0.21346 0.992521