ITEM: TIMESTEP
0
ITEM: NUMBER OF ATOMS
360
ITEM: BOX BOUNDS pp pp pp
0.0000000000000000e+00 6.6943295008216896e+00
0.0000000000000000e+00 6.6943295008216896e+00
0.0000000000000000e+00 6.6943295008216896e+00
ITEM: ATOMS id type xs ys zs
260 1 0.0754524 0.147481 0.225759
195 1 0.118392 0.176917 0.0702647
201 1 0.230547 0.138878 0.175648
328 2 0.0369347 0.0905558 0.110872
76 1 0.105386 0.0150686 0.0348094
53 1 0.417448 0.246779 0.165864
221 1 0.39038 0.0785048 0.144697
224 1 0.267469 0.0544197 0.0424834
141 1 0.375774 0.158543 0.0175711
75 1 0.509191 0.195745 0.025434
129 1 0.656548 0.150735 0.0598899
312 2 0.509926 0.123087 0.12859
112 1 0.583394 0.206075 0.188087
219 1 0.726411 0.161208 0.218447
36 1 0.560949 0.00117312 0.110918
62 1 0.607904 0.0771225 0.222892
259 1 0.950056 0.224069 0.032405
50 1 0.912344 0.140665 0.148911
294 2 0.785489 0.180426 0.112524
39 1 0.795624 0.0579978 0.103708
319 2 0.929943 0.0277124 0.215138
105 1 0.948265 0.00599001 0.0933902
79 1 0.227175 0.281443 0.0212947
148 1 0.068382 0.313496 0.0651
273 1 0.149542 0.296326 0.191762
246 1 0.135252 0.447358 0.0981007
33 1 0.0226172 0.422131 0.187601
160 1 0.2898 0.301878 0.147145
18 1 0.252056 0.45025 0.187809
296 2 0.307433 0.407534 0.0690772
316 2 0.386977 0.342546 0.239308
120 1 0.395902 0.418607 0.153907
72 1 0.391062 0.309264 0.035223
192 1 0.496844 0.484219 0.0705912
115 1 0.641134 0.414879 0.0131062
231 1 0.5328 0.440364 0.21041
92 1 0.537408 0.334874 0.0950592
286 1 0.639145 0.33534 0.203577
188 1 0.719938 0.287613 0.0768644
87 1 0.66401 0.47609 0.151632
163 1 0.819699 0.466394 0.107459
179 1 0.975915 0.483342 0.0607593
309 2 0.764673 0.361911 0.177005
78 1 0.874467 0.404473 0.233259
157 1 0.873848 0.313805 0.120324
40 1 0.990736 0.259281 0.200284
151 1 0.155358 0.228511 0.34438
176 1 0.0494815 0.144375 0.499993
60 1 0.183682 0.0759181 0.312786
23 1 0.204569 0.112538 0.480065
187 1 0.0283618 0.000295204 0.273797
113 1 0.107428 0.00315101 0.408553
6 1 0.468093 0.138807 0.270495
184 1 0.4177 0.0245203 0.420763
288 1 0.327661 0.20322 0.298896
325 2 0.332307 0.125108 0.440732
210 1 0.430352 0.21971 0.40106
271 1 0.351265 0.0469585 0.293117
324 2 0.668828 0.0290427 0.331617
106 1 0.569639 0.135211 0.387312
154 1 0.668476 0.22205 0.48013
97 1 0.740574 0.0813927 0.427697
318 2 0.515412 0.0202512 0.312593
196 1 0.851473 0.241854 0.254386
149 1 0.932376 0.239637 0.486509
102 1 0.815084 0.218198 0.395931
248 1 0.849624 0.105217 0.304029
63 1 0.922975 0.0939591 0.42957
226 1 0.994668 0.177675 0.345527
61 1 0.753158 0.00726042 0.253415
164 1 0.104882 0.369266 0.317071
43 1 0.0937975 0.290601 0.454711
38 1 0.206323 0.435175 0.422392
104 1 0.287353 0.268222 0.447357
270 1 0.257184 0.332886 0.295212
206 1 0.387372 0.485894 0.301204
94 1 0.379285 0.364084 0.385457
229 1 0.372484 0.467604 0.496656
54 1 0.514505 0.467188 0.360442
162 1 0.514521 0.295203 0.290713
49 1 0.657628 0.384272 0.440566
291 2 0.608691 0.371953 0.323054
41 1 0.525774 0.320005 0.43695
58 1 0.653847 0.252823 0.320683
47 1 0.667138 0.48081 0.309181
350 2 0.730641 0.480205 0.466513
310 2 0.87041 0.338964 0.39482
165 1 0.986881 0.402348 0.448443
240 1 0.974682 0.327747 0.327429
282 1 0.973535 0.498792 0.305908
185 1 0.83791 0.461857 0.392326
268 1 0.75594 0.348822 0.333152
253 1 0.242548 0.081837 0.64261
118 1 0.09228 0.159724 0.662972
236 1 0.174921 0.228046 0.562578
143 1 0.0785008 0.0249444 0.584841
245 1 0.234702 0.218101 0.694964
335 2 0.339733 0.146277 0.685956
172 1 0.391168 0.145858 0.541312
103 1 0.411129 0.236928 0.670284
344 2 0.49165 0.119622 0.619005
198 1 0.49132 0.0108519 0.553818
145 1 0.465585 0.107353 0.746729
337 2 0.306187 0.23247 0.57069
5 1 0.593491 0.170005 0.727416
146 1 0.611943 0.095686 0.549017
161 1 0.535416 0.217972 0.54972
124 1 0.689021 0.241418 0.650632
111 1 0.994103 0.0353795 0.721994
126 1 0.778995 0.041931 0.592069
222 1 0.953296 0.137317 0.620265
153 1 0.851544 0.246894 0.705995
56 1 0.798498 0.184323 0.542873
208 1 0.840715 0.0557222 0.725988
345 2 0.0232125 0.257214 0.559218
223 1 0.101692 0.324262 0.654019
275 1 0.194288 0.406922 0.73193
3 1 0.117165 0.401926 0.53256
167 1 0.268052 0.362635 0.567745
301 2 0.350343 0.441982 0.621923
168 1 0.341683 0.352158 0.73346
13 1 0.411651 0.316244 0.535587
194 1 0.46719 0.393837 0.674929
107 1 0.596148 0.343522 0.57322
235 1 0.529387 0.450161 0.520048
90 1 0.717619 0.456763 0.6047
342 2 0.536609 0.286097 0.672662
295 2 0.614512 0.388426 0.693997
242 1 0.860564 0.460522 0.542364
91 1 0.963954 0.455427 0.724292
132 1 0.950769 0.349875 0.587675
155 1 0.990022 0.27282 0.743086
128 1 0.821751 0.38338 0.685395
306 2 0.994717 0.472218 0.558655
71 1 0.783398 0.32979 0.533587
347 2 0.0148782 0.223324 0.869307
257 1 0.0344518 0.127849 0.961783
252 1 0.0986709 0.115015 0.830086
330 2 0.154394 0.117546 0.965087
234 1 0.257378 0.0891961 0.787908
8 1 0.467963 0.135766 0.882835
343 2 0.386336 0.0371661 0.804641
117 1 0.354628 0.201227 0.810398
171 1 0.35894 0.0364752 0.924101
166 1 0.25967 0.16629 0.918002
230 1 0.508874 0.0477182 0.992272
130 1 0.64734 0.178044 0.890816
263 1 0.569177 0.0492439 0.860118
283 1 0.690562 0.0578114 0.788268
228 1 0.690579 0.0393907 0.98001
287 1 0.78817 0.19843 0.988582
261 1 0.761393 0.202574 0.803209
83 1 0.795749 0.0687117 0.878948
251 1 0.891978 0.204248 0.869117
323 2 0.958891 0.126406 0.785854
305 2 0.909646 0.0761172 0.982396
73 1 0.132445 0.262219 0.783499
232 1 0.118661 0.250426 0.926653
311 2 0.079668 0.400455 0.75418
281 1 0.181098 0.383432 0.878194
88 1 0.226549 0.475892 0.999423
16 1 0.0180697 0.407337 0.876413
334 2 0.260942 0.271925 0.798403
359 2 0.422656 0.41063 0.826459
74 1 0.485822 0.389547 0.940646
215 1 0.325815 0.331788 0.903735
313 2 0.434279 0.265691 0.928703
45 1 0.48549 0.292513 0.797501
156 1 0.28698 0.480457 0.834845
27 1 0.374256 0.46574 0.986093
177 1 0.546056 0.44401 0.797499
186 1 0.628814 0.296843 0.79542
352 2 0.744942 0.347503 0.782176
37 1 0.741427 0.337825 0.902964
7 1 0.599353 0.28802 0.946775
339 2 0.619824 0.397063 0.902251
21 1 0.706772 0.472115 0.766169
67 1 0.741582 0.488991 0.925287
15 1 0.91063 0.368455 0.981921
326 2 0.884116 0.497475 0.932515
238 1 0.871837 0.362738 0.826209
34 1 0.119409 0.737002 0.12579
57 1 0.0833651 0.549006 0.215262
30 1 0.00564007 0.695699 0.238704
290 2 0.0518027 0.641335 0.13496
108 1 0.166626 0.588071 0.0731569
170 1 0.174016 0.661774 0.23743
348 2 0.2105 0.743389 0.00127058
10 1 0.419366 0.625646 0.0185183
255 1 0.44508 0.631653 0.161979
274 1 0.284765 0.684569 0.0930022
93 1 0.332615 0.539635 0.113411
338 2 0.2794 0.585389 0.00792267
65 1 0.324797 0.709808 0.224812
249 1 0.606702 0.615311 0.11261
358 2 0.684389 0.598337 0.221979
340 2 0.52348 0.736427 0.158396
341 2 0.73942 0.732983 0.225145
205 1 0.529283 0.710929 0.0156194
314 2 0.705665 0.530323 0.038946
169 1 0.991006 0.648227 0.0220039
123 1 0.916269 0.567902 0.172976
32 1 0.775278 0.611096 0.142695
355 2 0.894503 0.667518 0.101453
265 1 0.841991 0.588069 0.0143356
216 1 0.162089 0.999531 0.179788
308 2 0.21491 0.943703 0.0478438
137 1 0.061193 0.907865 0.133293
207 1 0.189594 0.857388 0.167815
277 1 0.130918 0.858624 0.0149928
225 1 0.302614 0.834286 0.0499572
250 1 0.419318 0.810487 0.144844
336 2 0.466186 0.819594 0.0445317
211 1 0.416917 0.949248 0.0624105
80 1 0.461935 0.941923 0.205089
213 1 0.301416 0.950944 0.171993
254 1 0.697542 0.75641 0.0922583
109 1 0.628427 0.766291 0.242991
70 1 0.707249 0.939896 0.0995026
209 1 0.583659 0.850445 0.117892
26 1 0.868047 0.75495 0.174248
199 1 0.965031 0.790918 0.0539806
241 1 0.768372 0.866876 0.244574
139 1 0.830398 0.837434 0.0641322
182 1 0.913016 0.898007 0.197024
300 2 0.0816142 0.5047 0.412204
202 1 0.208829 0.691792 0.383377
114 1 0.0812567 0.616573 0.35712
258 1 0.199746 0.537012 0.313559
98 1 0.33478 0.581981 0.404878
292 2 0.362225 0.596098 0.263302
302 2 0.47346 0.665941 0.325769
66 1 0.361372 0.732099 0.373692
24 1 0.491012 0.591067 0.43958
203 1 0.552888 0.568768 0.267095
42 1 0.594027 0.687197 0.353057
351 2 0.664549 0.660821 0.460061
138 1 0.73477 0.652461 0.323874
12 1 0.79224 0.526111 0.266273
262 1 0.973825 0.73515 0.416057
131 1 0.890146 0.627285 0.320951
239 1 0.957007 0.567802 0.457588
266 1 0.79617 0.580153 0.467291
303 2 0.142299 0.939035 0.279966
307 2 0.147481 0.79379 0.260857
134 1 0.00523665 0.829905 0.316458
190 1 0.146554 0.847673 0.416619
135 1 0.243435 0.872595 0.302183
327 2 0.358575 0.831894 0.262269
197 1 0.470057 0.75322 0.455416
329 2 0.427691 0.91349 0.484949
127 1 0.491427 0.790774 0.283751
284 1 0.264391 0.983109 0.407005
14 1 0.438674 0.897147 0.364229
217 1 0.295786 0.844721 0.452347
142 1 0.734755 0.906555 0.378849
297 2 0.591027 0.81791 0.361661
99 1 0.598535 0.9136 0.265591
299 2 0.71508 0.801261 0.336988
233 1 0.560437 0.973497 0.416997
82 1 0.622561 0.774433 0.473173
349 2 0.973567 0.958624 0.40786
357 2 0.894074 0.756696 0.297464
353 2 0.913207 0.845722 0.454015
181 1 0.884202 0.941402 0.329241
81 1 0.838783 0.960547 0.474156
86 1 0.823862 0.757633 0.393359
159 1 0.0412268 0.741729 0.662362
140 1 0.0297867 0.602558 0.739818
212 1 0.159693 0.650318 0.636629
136 1 0.00283125 0.611235 0.592891
346 2 0.229559 0.548974 0.720297
354 2 0.0885343 0.555348 0.531919
48 1 0.0984188 0.505983 0.647945
200 1 0.215822 0.546541 0.511336
243 1 0.101252 0.678889 0.500419
110 1 0.313426 0.603295 0.62416
278 1 0.464631 0.573768 0.5931
25 1 0.423391 0.710425 0.63194
180 1 0.292303 0.704674 0.504519
220 1 0.388727 0.505055 0.718792
333 2 0.398067 0.647313 0.514097
285 1 0.583165 0.500555 0.666273
4 1 0.566134 0.681657 0.579135
218 1 0.722589 0.673392 0.598289
64 1 0.502927 0.620493 0.732965
189 1 0.616913 0.719155 0.737678
119 1 0.630968 0.549307 0.52605
289 2 0.992367 0.734921 0.543988
264 1 0.754438 0.613334 0.742578
9 1 0.862243 0.540971 0.654935
175 1 0.888684 0.683793 0.689009
116 1 0.850166 0.704695 0.540668
122 1 0.0298945 0.874982 0.531157
96 1 0.158361 0.799522 0.604159
191 1 0.0358275 0.891723 0.683742
276 1 0.18854 0.943949 0.532615
183 1 0.16239 0.82737 0.745547
52 1 0.156799 0.986388 0.726412
178 1 0.274692 0.753171 0.67664
147 1 0.268731 0.911296 0.663151
193 1 0.332862 0.988708 0.546816
125 1 0.378476 0.834643 0.584325
214 1 0.407745 0.970679 0.694928
95 1 0.553208 0.98727 0.709513
44 1 0.646462 0.793977 0.614393
204 1 0.702878 0.94218 0.684237
68 1 0.520052 0.838284 0.709312
85 1 0.533335 0.869793 0.542608
46 1 0.682974 0.946522 0.522796
293 2 0.892428 0.794128 0.74975
55 1 0.765568 0.826714 0.507566
17 1 0.905732 0.828121 0.628538
256 1 0.782145 0.794763 0.694387
280 1 0.90627 0.975353 0.595035
321 2 0.791503 0.905151 0.598236
69 1 0.188567 0.684327 0.784822
158 1 0.225431 0.58995 0.899797
356 2 0.000208197 0.521572 0.844058
1 1 0.115481 0.677424 0.943067
144 1 0.122972 0.519978 0.819718
227 1 0.0912198 0.529352 0.965017
19 1 0.415012 0.538298 0.867336
269 1 0.324216 0.627784 0.77174
272 1 0.434193 0.690887 0.854997
51 1 0.321688 0.728088 0.937571
133 1 0.583816 0.517585 0.935083
298 2 0.627871 0.581778 0.757711
174 1 0.610109 0.658576 0.872811
315 2 0.502652 0.614945 0.915928
11 1 0.688547 0.645586 0.997542
320 2 0.74109 0.616275 0.883346
31 1 0.993383 0.644746 0.863347
20 1 0.839968 0.692264 0.830065
100 1 0.865659 0.549561 0.81831
173 1 0.839472 0.726038 0.965089
77 1 0.0096039 0.790319 0.811523
35 1 0.0581286 0.936791 0.833901
360 2 0.0730761 0.839035 0.91345
2 1 0.197124 0.983764 0.920544
22 1 0.20209 0.819016 0.888738
332 2 0.298335 0.926442 0.949503
331 2 0.289143 0.773499 0.813957
279 1 0.421042 0.838317 0.928855
101 1 0.383493 0.823174 0.755851
244 1 0.455997 0.938881 0.834128
267 1 0.289281 0.923488 0.82034
59 1 0.689658 0.892469 0.957093
150 1 0.643754 0.905916 0.827463
247 1 0.539905 0.918472 0.952743
29 1 0.723248 0.785123 0.840878
121 1 0.547025 0.803467 0.860103
317 2 0.598098 0.797995 0.975936
84 1 0.901734 0.838637 0.890204
28 1 0.830934 0.976474 0.991058
152 1 0.991382 0.926423 0.984991
237 1 0.900063 0.92294 0.755647
304 2 0.777171 0.935613 0.795652
322 2 0.98402 0.751118 0.946046
89 1 0.927902 0.989217 0.877176
ITEM: TIMESTEP
10000
ITEM: NUMBER OF ATOMS
360
ITEM: BOX BOUNDS pp pp pp
0.0000000000000000e+00 6.6943295008216896e+00
0.0000000000000000e+00 6.6943295008216896e+00
0.0000000000000000e+00 6.6943295008216896e+00
ITEM: ATOMS id type xs ys zs
76 1 0.130578 0.0921331 0.17994
330 2 0.185991 0.285855 0.184939
195 1 0.0832098 0.228893 0.117894
328 2 0.0132168 0.242002 0.237102
151 1 0.25764 0.157877 0.22774
201 1 0.292554 0.0693392 0.0769748
53 1 0.391603 0.238645 0.153996
332 2 0.474513 0.16267 0.0814367
221 1 0.419163 0.0938846 0.172334
259 1 0.975205 0.245131 0.0021289
308 2 0.147078 0.137863 0.0552583
346 2 0.182088 0.484996 0.0320846
75 1 0.556099 0.24085 0.141903
230 1 0.463709 0.0259231 0.0301614
28 1 0.594481 0.100746 0.101481
187 1 0.966772 0.149073 0.169405
148 1 0.848714 0.184031 0.0764302
39 1 0.733882 0.117757 0.149956
59 1 0.873271 0.037912 0.066371
141 1 0.259372 0.211528 0.0797428
160 1 0.20769 0.413885 0.13177
79 1 0.0884539 0.382214 0.0536691
273 1 0.0912895 0.338024 0.260737
57 1 0.0310756 0.452673 0.172464
18 1 0.167713 0.465086 0.281619
210 1 0.41405 0.0913647 0.473345
72 1 0.469633 0.364733 0.0995755
27 1 0.322978 0.468406 0.0472151
296 2 0.34037 0.332052 0.0900754
161 1 0.408221 0.348291 0.493945
312 2 0.461252 0.331464 0.217972
120 1 0.329773 0.372269 0.226035
112 1 0.490004 0.471095 0.229637
350 2 0.79389 0.392833 0.414833
36 1 0.678744 0.381151 0.157033
240 1 0.866403 0.444024 0.293943
92 1 0.579723 0.482435 0.104986
157 1 0.686758 0.223041 0.0592084
163 1 0.722116 0.469504 0.0300352
61 1 0.815177 0.33206 0.147633
355 2 0.888305 0.328727 0.0251307
40 1 0.958693 0.307051 0.136096
78 1 0.909428 0.443695 0.0851535
310 2 0.817323 0.308339 0.31311
81 1 0.867835 0.0340634 0.23005
260 1 0.118651 0.200861 0.299974
113 1 0.031185 0.0295521 0.288808
176 1 0.0783353 0.0868915 0.439213
318 2 0.310371 0.0368687 0.414171
104 1 0.171882 0.208073 0.444664
165 1 0.934589 0.398483 0.45064
135 1 0.387973 0.0712966 0.317313
257 1 0.0222529 0.0764747 0.050171
288 1 0.222552 0.318863 0.327945
60 1 0.192589 0.0736563 0.354442
6 1 0.379759 0.238615 0.304279
325 2 0.261565 0.180128 0.348796
50 1 0.677547 0.234933 0.240027
271 1 0.551215 0.126351 0.248617
184 1 0.560726 0.0677128 0.417012
62 1 0.702082 0.06861 0.31244
188 1 0.604585 0.352042 0.0301201
291 2 0.612068 0.171493 0.401263
41 1 0.494886 0.232062 0.432613
219 1 0.700112 0.261451 0.38009
137 1 0.251265 0.0108852 0.239696
196 1 0.83527 0.20388 0.238459
102 1 0.857334 0.268816 0.437908
248 1 0.816103 0.134682 0.381036
226 1 0.962812 0.162456 0.326814
43 1 0.947409 0.319748 0.321873
13 1 0.248511 0.333128 0.491954
54 1 0.566335 0.469274 0.354744
347 2 0.754476 0.0662117 0.0206697
236 1 0.0175726 0.464396 0.332325
270 1 0.126961 0.379832 0.429831
94 1 0.322703 0.202183 0.452912
38 1 0.317714 0.445517 0.378208
316 2 0.336483 0.332146 0.388605
162 1 0.442172 0.376555 0.342724
58 1 0.569244 0.330729 0.269991
333 2 0.541766 0.35182 0.419893
107 1 0.667717 0.39667 0.462755
49 1 0.701995 0.397323 0.321398
149 1 0.0214735 0.233375 0.444914
97 1 0.707121 0.121602 0.471852
47 1 0.782315 0.488724 0.167933
126 1 0.95181 0.0743089 0.498419
234 1 0.210194 0.101204 0.707519
145 1 0.496626 0.0302711 0.578954
280 1 0.119444 0.136343 0.598343
359 2 0.168133 0.223472 0.673748
153 1 0.973879 0.156896 0.632731
156 1 0.235904 0.378976 0.976256
88 1 0.326758 0.446932 0.885813
253 1 0.335436 0.0833219 0.623844
245 1 0.257996 0.206006 0.584938
212 1 0.168392 0.472461 0.57086
198 1 0.574469 0.16396 0.532374
124 1 0.620445 0.233743 0.676575
106 1 0.67533 0.0850539 0.64172
268 1 0.704085 0.259798 0.551523
103 1 0.492603 0.11786 0.704879
56 1 0.940188 0.311987 0.594804
283 1 0.827771 0.132498 0.554203
323 2 0.927269 0.209327 0.535177
83 1 0.804813 0.217246 0.672656
352 2 0.822116 0.288061 0.571256
155 1 0.859702 0.199725 0.823213
324 2 0.884936 0.102931 0.7058
16 1 0.822412 0.341411 0.795054
222 1 0.128876 0.299609 0.567691
73 1 0.0444638 0.284446 0.692357
200 1 0.236447 0.335466 0.675201
48 1 0.98746 0.398035 0.781592
235 1 0.648356 0.464561 0.604988
154 1 0.413805 0.207929 0.573715
168 1 0.337768 0.225604 0.715415
4 1 0.512518 0.456252 0.519024
301 2 0.338419 0.325962 0.607527
278 1 0.495745 0.281786 0.723589
229 1 0.437648 0.393828 0.636954
24 1 0.553772 0.312224 0.552876
130 1 0.533082 0.215136 0.975861
339 2 0.575279 0.384131 0.651859
261 1 0.723447 0.355051 0.674586
223 1 0.027253 0.44608 0.608348
25 1 0.296825 0.478277 0.704025
132 1 0.882495 0.41913 0.67498
311 2 0.920382 0.272905 0.727718
177 1 0.598847 0.459768 0.927713
98 1 0.312619 0.482527 0.521458
71 1 0.782136 0.403784 0.549349
166 1 0.21197 0.108271 0.942501
275 1 0.998692 0.134884 0.901162
281 1 0.130257 0.236737 0.964524
117 1 0.117685 0.130353 0.825632
334 2 0.0185882 0.169946 0.755532
89 1 0.962447 0.0557537 0.784433
45 1 0.402391 0.177603 0.849935
224 1 0.357437 0.0501118 0.921736
343 2 0.257851 0.153917 0.820366
215 1 0.276094 0.244737 0.905076
8 1 0.512801 0.0739549 0.882708
267 1 0.354086 0.0657708 0.769925
220 1 0.473038 0.494362 0.837669
344 2 0.72453 0.15358 0.752797
263 1 0.622722 0.0449333 0.774873
287 1 0.711015 0.157003 0.928551
294 2 0.57648 -0.00298204 0.984191
37 1 0.716808 0.370594 0.918242
150 1 0.781364 0.0381865 0.761687
91 1 0.0108351 0.268383 0.843594
5 1 0.572881 0.189475 0.823689
337 2 0.0294196 0.360445 0.520262
232 1 0.85406 0.104756 0.947186
305 2 0.967851 0.0215675 0.925813
15 1 0.821996 0.269027 0.945525
342 2 0.233459 0.384418 0.845187
227 1 0.106888 0.383882 0.89301
144 1 0.16389 0.265281 0.796013
295 2 0.785783 0.496898 0.636647
110 1 0.127051 0.410883 0.736744
74 1 0.391231 0.335842 0.963978
7 1 0.515967 0.349543 0.873341
167 1 0.391081 0.359147 0.783344
238 1 0.707035 0.261069 0.818059
313 2 0.634482 0.273921 0.946069
194 1 0.643644 0.412425 0.784902
33 1 0.973813 0.390695 0.948273
172 1 0.233935 0.0705186 0.508127
309 2 0.846027 0.397138 0.907561
345 2 0.0634631 0.0183403 0.537395
19 1 0.467747 0.495742 0.986077
252 1 0.0890522 0.00287089 0.929443
306 2 0.725549 0.491503 0.870624
251 1 0.701272 0.00561336 0.921044
171 1 0.37903 0.182993 0.999312
170 1 0.0360849 0.672509 0.183542
338 2 0.168961 0.656457 0.150603
274 1 0.275124 0.765024 0.0416085
213 1 0.167653 1.00194 0.0731777
108 1 0.129278 0.684458 0.0280213
300 2 0.0658195 0.547347 0.230134
99 1 0.506221 0.984113 0.302065
10 1 0.255571 0.603644 0.0589263
93 1 0.267847 0.706196 0.208662
231 1 0.284102 0.52405 0.193775
255 1 0.508168 0.729753 0.229834
192 1 0.41052 0.631295 0.195952
319 2 0.888719 0.918304 0.104378
12 1 0.695541 0.607916 0.108437
314 2 0.504872 0.741028 0.0296964
115 1 0.545348 0.624658 0.09763
286 1 0.644543 0.540827 0.237876
290 2 0.987889 0.557479 0.0839421
358 2 0.851331 0.556337 0.104879
26 1 0.892477 0.67301 0.123979
282 1 0.933985 0.558044 0.20866
341 2 0.869864 0.611083 0.311603
34 1 0.106694 0.865231 0.0317428
204 1 0.774267 0.979438 0.480183
207 1 0.145373 0.78508 0.154762
105 1 0.0453007 0.965695 0.150039
191 1 0.058929 0.918052 0.455876
357 2 0.121355 0.722486 0.301945
225 1 0.252007 0.897375 0.130311
65 1 0.416054 0.802709 0.119983
327 2 0.379591 0.824656 0.26107
14 1 0.546318 0.879931 0.182335
216 1 0.387502 0.944205 0.209845
11 1 0.717065 0.785908 0.0119436
82 1 0.590889 0.807479 0.489594
247 1 0.64574 0.914497 0.0593304
70 1 0.684049 0.857731 0.243448
209 1 0.624881 0.749697 0.143698
241 1 0.77003 0.946589 0.14829
138 1 0.747534 0.67051 0.249212
199 1 0.032549 0.811484 0.241679
32 1 0.809386 0.795505 0.144017
181 1 0.910798 0.899134 0.229456
23 1 0.503102 0.935042 0.45687
139 1 0.960344 0.920357 0.00342628
303 2 0.977602 0.883951 0.331335
164 1 0.164026 0.613106 0.274513
30 1 0.147465 0.679684 0.427468
114 1 0.0253777 0.614926 0.340614
258 1 0.190768 0.521051 0.41182
292 2 0.386033 0.50892 0.280586
3 1 0.0477821 0.51523 0.470312
202 1 0.30499 0.599442 0.347413
185 1 0.768425 0.537986 0.325109
307 2 0.245207 0.712113 0.33923
206 1 0.440392 0.540625 0.40255
87 1 0.518663 0.612943 0.310524
302 2 0.626262 0.659509 0.247828
351 2 0.586018 0.544009 0.46897
203 1 0.509222 0.690873 0.444946
119 1 0.660904 0.612463 0.390533
279 1 0.505093 0.884096 0.0269259
315 2 0.424086 0.52617 0.109672
90 1 0.730569 0.529316 0.490047
321 2 0.988974 0.815154 0.487429
86 1 0.907334 0.720366 0.262989
266 1 0.813022 0.67833 0.392142
239 1 0.894979 0.542973 0.417872
131 1 0.962284 0.672524 0.480934
122 1 0.0455771 0.767233 0.383527
182 1 0.132676 0.915412 0.294115
349 2 0.154714 0.833643 0.420779
143 1 0.226377 0.930385 0.445603
193 1 0.422581 0.791841 0.47452
217 1 0.261888 0.784903 0.437696
134 1 0.254372 0.83868 0.286803
284 1 0.373011 0.913517 0.364851
66 1 0.38401 0.722357 0.33624
1 1 0.991984 0.782401 0.0785911
127 1 0.645698 0.753786 0.334252
109 1 0.63843 0.928033 0.372814
46 1 0.738341 0.817353 0.435214
233 1 0.509968 0.843845 0.328266
249 1 0.408227 0.655524 0.0489867
55 1 0.896647 0.809826 0.393865
142 1 0.784559 0.933117 0.329268
63 1 0.91515 0.982115 0.381902
340 2 0.785861 0.784009 0.297367
336 2 0.510654 0.998149 0.150289
246 1 0.120555 0.550527 0.121885
197 1 0.359943 0.65407 0.488043
80 1 0.348586 0.930837 0.0312009
129 1 0.641664 0.997255 0.196708
299 2 0.834092 0.614826 0.495424
254 1 0.799481 0.90195 0.0144311
159 1 0.03645 0.661376 0.726972
96 1 0.235351 0.631089 0.562112
17 1 0.159515 0.718873 0.664723
175 1 -9.95592e-05 0.906035 0.788789
243 1 0.0817947 0.626247 0.581483
178 1 0.162169 0.566612 0.691318
179 1 0.6502 0.648529 0.960749
180 1 0.408812 0.562358 0.610977
289 2 0.318285 0.627361 0.6532
329 2 0.330995 0.788097 0.552795
297 2 0.458435 0.59188 0.514736
68 1 0.439667 0.719338 0.627527
298 2 0.621755 0.570657 0.692006
285 1 0.684644 0.682224 0.716054
218 1 0.56168 0.620686 0.573333
189 1 0.578663 0.768208 0.626645
272 1 0.517444 0.500584 0.69885
304 2 0.883373 0.97242 0.74161
9 1 0.799541 0.61598 0.62282
116 1 0.841519 0.744477 0.556065
136 1 0.872746 0.704117 0.70725
100 1 0.984395 0.768192 0.60305
353 2 0.946706 0.643431 0.624976
244 1 0.474926 0.968074 0.751375
118 1 0.162763 0.987716 0.614097
237 1 0.0728332 0.871428 0.648257
335 2 0.192925 0.881687 0.687582
262 1 0.102463 0.774628 0.521404
242 1 0.901269 0.533313 0.569623
29 1 0.862284 0.833285 0.824256
276 1 0.234687 0.856145 0.574285
52 1 0.343669 0.931992 0.662913
214 1 0.472062 0.871441 0.589466
121 1 0.589743 0.800669 0.774234
208 1 0.937851 0.995309 0.629105
95 1 0.59018 0.923947 0.682902
256 1 0.731283 0.827171 0.595622
146 1 0.725068 0.904239 0.775501
190 1 0.363351 0.953086 0.516647
2 1 0.222627 0.948977 0.936294
264 1 0.884047 0.855616 0.680273
186 1 0.760398 0.498723 0.755303
84 1 0.907402 0.911012 0.520658
20 1 0.862248 0.776494 0.967389
69 1 0.0895818 0.633574 0.873515
348 2 0.211436 0.640003 0.945367
158 1 0.186787 0.509453 0.893371
331 2 0.300324 0.545191 0.827751
140 1 0.983891 0.526658 0.863542
125 1 0.298859 0.788421 0.704688
320 2 0.493234 0.833714 0.85558
205 1 0.385987 0.59779 0.760695
51 1 0.526432 0.648814 0.751709
269 1 0.346504 0.593626 0.929068
322 2 0.952325 0.851208 0.902527
354 2 0.0430745 0.525231 0.726153
133 1 0.614407 0.556414 0.825115
64 1 0.506503 0.64527 0.897872
174 1 0.583784 0.784262 0.943629
326 2 0.613139 0.678809 0.848476
265 1 0.714671 0.774162 0.852164
128 1 0.902815 0.56378 0.738172
31 1 0.979488 0.650848 1.00014
21 1 0.785606 0.627782 0.826149
111 1 0.135745 0.970613 0.757553
173 1 0.924808 0.689907 0.836952
169 1 0.0588546 0.508776 0.991803
356 2 0.964129 0.781219 0.757658
183 1 0.214866 0.635296 0.799248
228 1 0.580229 0.925691 0.871958
35 1 0.124614 0.803026 0.784039
277 1 0.218725 0.761633 0.892087
77 1 0.0464037 0.779819 0.90983
360 2 0.117103 0.89352 0.890327
152 1 0.869353 0.979923 0.873112
22 1 0.410797 0.782377 0.963156
250 1 0.353246 0.722434 0.840265
147 1 0.268904 0.920387 0.794983
101 1 0.445982 0.828011 0.737897
211 1 0.385676 0.899958 0.886056
42 1 0.693979 0.685799 0.525184
293 2 0.766977 0.800262 0.710783
317 2 0.70452 0.877553 0.913128
85 1 0.634687 0.975986 0.523951
44 1 0.768478 0.961656 0.624384
123 1 0.855966 0.510169 0.944017
67 1 0.804924 0.647767 0.990456
ITEM: TIMESTEP
20000
ITEM: NUMBER OF ATOMS
360
ITEM: BOX BOUNDS pp pp pp
0.0000000000000000e+00 6.6943295008216896e+00
0.0000000000000000e+00 6.6943295008216896e+00
0.0000000000000000e+00 6.6943295008216896e+00
ITEM: ATOMS id type xs ys zs
76 1 0.0649825 0.132505 0.214045
195 1 0.196201 0.176265 0.128893
166 1 0.169046 0.0714954 0.0208645
105 1 0.0284349 0.0288736 0.0839913
79 1 0.0664905 0.187791 0.0442663
350 2 0.866116 0.438152 0.350099
201 1 0.404793 0.115384 0.0655063
221 1 0.493803 0.156443 0.162986
141 1 0.310281 0.222725 0.0188552
226 1 0.924131 0.118203 0.463401
151 1 0.310639 0.0912253 0.204585
157 1 0.624531 0.238178 0.228864
28 1 0.781558 0.0738426 0.161504
130 1 0.644232 0.141805 0.124557
271 1 0.608191 0.0741157 0.255904
310 2 0.750066 0.127489 0.27656
148 1 0.905945 0.145169 0.18444
40 1 0.767532 0.2292 0.184808
275 1 0.914355 0.11923 0.0124466
346 2 0.192432 0.26031 0.024072
232 1 0.779914 0.180294 0.0240476
113 1 0.171875 0.0156247 0.243138
259 1 0.0125961 0.28222 0.159011
246 1 0.087279 0.348398 0.0418676
305 2 0.89923 0.0248226 0.125587
160 1 0.225041 0.325557 0.119974
57 1 0.0429331 0.443495 0.161361
300 2 0.155183 0.463067 0.226695
53 1 0.359051 0.240788 0.165003
112 1 0.369298 0.37259 0.0844473
312 2 0.405827 0.35372 0.235584
72 1 0.505536 0.240672 0.0252718
115 1 0.728266 0.42369 0.345008
75 1 0.493939 0.30976 0.166167
92 1 0.579317 0.466704 0.169378
287 1 0.62943 0.309195 0.0845165
49 1 0.69754 0.373484 0.193333
162 1 0.555141 0.322471 0.321841
355 2 0.938722 0.432237 0.0441856
36 1 0.770462 0.358408 0.0569119
240 1 0.894038 0.389224 0.154107
328 2 0.929383 0.252365 0.262647
91 1 0.915991 0.290006 0.0338846
187 1 0.0525621 0.219289 0.322865
260 1 0.151779 0.113612 0.391365
288 1 0.204505 0.204974 0.268584
165 1 0.959988 0.457191 0.432858
337 2 0.169979 0.236171 0.390545
176 1 0.00653497 0.0479463 0.351873
315 2 0.307346 0.480875 0.0717727
61 1 0.830548 0.329118 0.278726
99 1 0.466811 0.0568688 0.298711
325 2 0.273687 0.0535852 0.323959
94 1 0.308 0.190576 0.399079
210 1 0.4978 0.0728109 0.449366
316 2 0.37051 0.283724 0.477357
6 1 0.423788 0.207139 0.305654
230 1 0.534456 0.0890542 0.018214
90 1 0.833586 0.366057 0.447336
50 1 0.724934 0.246277 0.34635
58 1 0.58197 0.18035 0.375719
248 1 0.701467 0.0854755 0.423378
163 1 0.793125 0.495602 0.107681
196 1 0.846951 0.147202 0.348528
297 2 0.365331 0.47764 0.318891
24 1 0.563185 0.444727 0.406632
273 1 0.98196 0.369314 0.286135
18 1 0.14039 0.332188 0.250257
236 1 0.10624 0.447026 0.354927
270 1 0.0899492 0.318791 0.429918
330 2 0.311132 0.269731 0.288479
13 1 0.24665 0.333529 0.37818
120 1 0.283401 0.386498 0.237906
4 1 0.398279 0.347024 0.378698
301 2 0.304595 0.406405 0.446854
43 1 0.932349 0.264359 0.396199
41 1 0.478005 0.232718 0.467979
54 1 0.478298 0.453679 0.278646
107 1 0.641739 0.307444 0.451916
60 1 0.287489 0.0379682 0.460752
39 1 0.882356 0.0142741 0.261236
102 1 0.782835 0.20788 0.486937
188 1 0.516258 0.393461 0.0354654
206 1 0.396974 0.493115 0.437204
326 2 0.474522 0.497471 0.101354
231 1 0.181387 0.482619 0.106036
212 1 0.193893 0.431704 0.489846
235 1 0.68549 0.443769 0.504765
149 1 0.0491685 0.181829 0.488755
359 2 0.102 0.137475 0.638296
172 1 0.20073 0.14388 0.536996
111 1 0.0693198 0.0398923 0.5077
280 1 0.00984386 0.235746 0.632825
267 1 0.184838 0.0488439 0.67704
19 1 0.39279 0.451843 0.967796
252 1 0.0118931 0.0382964 0.655795
234 1 0.329478 0.082073 0.663869
154 1 0.372193 0.147802 0.531938
244 1 0.453225 0.136196 0.735574
104 1 0.199051 0.222962 0.67141
145 1 0.537386 0.0788818 0.622715
97 1 0.611436 0.170472 0.732198
161 1 0.414771 0.360089 0.559439
291 2 0.675057 0.0822603 0.640972
268 1 0.690823 0.252882 0.626573
106 1 0.548486 -0.00456576 0.773767
153 1 0.764112 0.125061 0.7178
324 2 0.919629 0.125676 0.629612
126 1 0.816789 0.0815215 0.573735
283 1 0.850255 0.223427 0.655002
323 2 0.934727 0.220344 0.523806
222 1 0.0370489 0.401412 0.678036
223 1 0.0575291 0.476368 0.555541
331 2 0.1478 0.469487 0.718006
200 1 0.120984 0.318642 0.577252
229 1 0.246578 0.370755 0.649688
272 1 0.521236 0.383216 0.676592
278 1 0.349349 0.260759 0.658213
98 1 0.316549 0.471923 0.561564
167 1 0.381947 0.392644 0.721583
15 1 0.661767 0.467067 1.00829
198 1 0.510282 0.234414 0.615195
155 1 0.827557 0.31175 0.913951
124 1 0.562107 0.490731 0.578502
261 1 0.66691 0.406345 0.656235
296 2 0.147929 0.387142 0.954613
333 2 0.590205 0.33337 0.564233
71 1 0.793422 0.352744 0.585323
56 1 0.962421 0.348266 0.530388
352 2 0.907615 0.344936 0.651258
132 1 0.8904 0.46882 0.60764
73 1 0.933949 0.291358 0.761095
83 1 0.776632 0.310404 0.768565
322 2 0.0537722 0.0865636 0.776689
144 1 0.0787219 0.203335 0.769664
343 2 0.178051 0.130565 0.771805
281 1 0.0320834 0.0937888 0.909383
215 1 0.179354 0.16979 0.890005
257 1 0.169621 0.0124846 0.862215
74 1 0.275724 0.342611 0.94403
110 1 0.95454 0.489029 0.771793
103 1 0.311943 0.127329 0.814101
45 1 0.432251 0.0252662 0.858114
224 1 0.300636 0.041245 0.955527
171 1 0.400155 0.222671 0.889459
150 1 0.674238 0.0612723 0.825793
95 1 0.546971 0.149346 0.871819
184 1 0.62798 0.0122206 0.531164
251 1 0.681927 0.0634576 0.996678
89 1 0.710636 0.202917 0.861149
227 1 0.942217 0.223571 0.897231
117 1 0.912448 0.141595 0.763175
334 2 0.833037 0.214158 0.811846
152 1 0.827132 0.106609 0.887064
253 1 0.154377 0.3465 0.766898
27 1 0.0909795 0.284473 0.903722
140 1 0.972163 0.396399 0.922366
342 2 0.0296623 0.361789 0.822964
168 1 0.0858474 0.476983 0.872364
10 1 0.228198 0.488217 0.965904
156 1 0.290851 0.441746 0.83243
298 2 0.457316 0.505925 0.679301
313 2 0.393053 0.3649 0.852974
5 1 0.470675 0.276293 0.769683
332 2 0.433043 0.327917 0.963185
7 1 0.284312 0.276073 0.805839
303 2 0.185566 0.015211 0.544516
311 2 0.864093 0.407576 0.827228
263 1 0.625371 0.316898 0.785446
37 1 0.707066 0.451961 0.836758
219 1 0.622225 0.167672 0.526267
238 1 0.679628 0.326831 0.935286
194 1 0.520939 0.376613 0.879235
133 1 0.57469 0.48067 0.77171
33 1 0.833926 0.45872 0.952444