ITEM: TIMESTEP
0
ITEM: NUMBER OF ATOMS
360
ITEM: BOX BOUNDS pp pp pp
0.0000000000000000e+00 6.6943295008216896e+00
0.0000000000000000e+00 6.6943295008216896e+00
0.0000000000000000e+00 6.6943295008216896e+00
ITEM: ATOMS id type xs ys zs
84 1 0.145028 0.137698 0.208591
20 1 0.0995667 0.206654 0.0640373
337 2 0.0544785 0.0896113 0.0966525
221 1 0.246149 0.173681 0.102227
149 1 0.188278 0.0203838 0.121456
59 1 0.31509 0.0723273 0.0134689
94 1 0.390919 0.158578 0.14202
272 1 0.295739 0.0676866 0.227355
132 1 0.465252 0.0423724 0.0764747
148 1 0.285076 0.226275 0.240268
30 1 0.658246 0.0476443 0.0739036
56 1 0.55784 0.0783359 0.202209
42 1 0.525309 0.18154 0.0921185
227 1 0.702314 0.11259 0.242912
317 2 0.651381 0.160929 0.143446
180 1 0.58451 0.225032 0.236716
121 1 0.69317 0.191479 0.0159474
110 1 0.98396 0.107226 0.198054
179 1 0.930839 0.12893 0.0552002
105 1 0.785363 0.12343 0.115281
145 1 0.863292 0.207574 0.241217
14 1 0.218596 0.30771 0.030784
78 1 0.0734556 0.367504 0.0782658
79 1 0.150065 0.47412 0.166885
47 1 0.158307 0.299594 0.18435
142 1 0.0279199 0.381319 0.242024
151 1 0.161162 0.499527 0.0121963
138 1 0.487561 0.390547 0.0145163
126 1 0.291786 0.38804 0.187837
245 1 0.382553 0.304105 0.0953752
71 1 0.458096 0.425222 0.156201
326 2 0.493195 0.290756 0.151455
274 1 0.305945 0.439666 0.0360587
52 1 0.597747 0.386829 0.228612
130 1 0.643771 0.297982 0.103206
123 1 0.742181 0.440175 0.226632
249 1 0.603865 0.499272 0.114521
100 1 0.719625 0.275685 0.235823
229 1 0.977259 0.264329 0.147686
96 1 0.826569 0.278338 0.0937918
206 1 0.764212 0.423901 0.0742065
283 1 0.921184 0.39786 0.0857984
219 1 0.879948 0.350745 0.241963
184 1 0.0185454 0.246624 0.311318
55 1 0.208342 0.0772738 0.370158
12 1 0.15536 0.217658 0.361178
146 1 0.0493653 0.0844242 0.359918
22 1 0.0578644 0.155564 0.496022
1 1 0.101622 0.00824385 0.48376
198 1 0.444564 0.134504 0.298842
37 1 0.339259 0.187068 0.406984
13 1 0.351778 0.0233565 0.389653
360 2 0.457775 0.173739 0.437944
75 1 0.58745 0.125227 0.360423
295 2 0.673201 0.201844 0.334267
279 1 0.743595 0.095149 0.385381
135 1 0.664855 0.220667 0.478919
307 2 0.636433 0.0160296 0.294644
355 2 0.840369 0.0845273 0.254078
16 1 0.953774 0.0374943 0.470641
266 1 0.892846 0.121715 0.367583
21 1 0.932559 0.239019 0.444584
290 2 0.220412 0.412791 0.466915
57 1 0.24113 0.290159 0.498257
98 1 0.130435 0.38135 0.357497
342 2 0.215685 0.470988 0.280669
166 1 0.0786205 0.310082 0.474153
88 1 0.344058 0.477289 0.471681
104 1 0.392201 0.33328 0.436047
164 1 0.422223 0.298221 0.261398
39 1 0.33671 0.492541 0.314824
61 1 0.273239 0.339915 0.352633
120 1 0.480047 0.431865 0.34611
91 1 0.675921 0.492534 0.487435
139 1 0.56315 0.38645 0.467809
67 1 0.530724 0.262868 0.380349
41 1 0.649264 0.496864 0.338604
171 1 0.661614 0.330348 0.366396
72 1 0.963384 0.376134 0.385799
343 2 0.876251 0.365791 0.471286
159 1 0.798806 0.409005 0.376054
182 1 0.800118 0.254831 0.373231
259 1 0.0895091 0.13922 0.650399
336 2 0.033223 0.0425572 0.585337
301 2 0.0580892 0.246069 0.596328
244 1 0.211976 0.232811 0.639378
232 1 0.234262 0.126744 0.52448
222 1 0.308515 0.0838239 0.666815
136 1 0.464081 0.130212 0.665029
233 1 0.364809 0.220489 0.583007
257 1 0.397867 0.0750584 0.525035
181 1 0.336726 0.217865 0.742654
70 1 0.51613 0.235431 0.54572
124 1 0.649081 0.0884414 0.658955
338 2 0.733902 0.185123 0.608221
228 1 0.568627 0.0933597 0.533993
309 2 0.689299 0.0899029 0.508946
299 2 0.53861 0.0316582 0.639655
175 1 0.809577 0.171044 0.506525
238 1 0.935233 0.166726 0.588026
351 2 0.865014 0.188523 0.72656
173 1 0.805369 0.0891762 0.655016
153 1 0.949702 0.092711 0.712018
333 2 0.847856 0.000445571 0.746997
137 1 0.796285 0.0214355 0.507018
200 1 0.222114 0.398498 0.633447
196 1 0.0682295 0.371799 0.645454
271 1 0.120747 0.449078 0.525499
352 2 0.340699 0.321247 0.65129
308 2 0.312993 0.390103 0.54653
258 1 0.462492 0.386163 0.591854
7 1 0.363177 0.476357 0.649803
284 1 0.487459 0.28532 0.694885
161 1 0.507657 0.474678 0.712961
230 1 0.634766 0.263756 0.64475
50 1 0.643196 0.433586 0.63515
304 2 0.585863 0.366809 0.716059
197 1 0.73274 0.368953 0.727243
177 1 0.971455 0.257098 0.726287
253 1 0.819227 0.43552 0.63146
218 1 0.827637 0.27383 0.648549
54 1 0.946201 0.338618 0.576548
35 1 0.939801 0.409193 0.727822
156 1 0.761836 0.349662 0.519491
323 2 0.0746427 0.210763 0.785403
344 2 0.239765 0.183536 0.972007
125 1 0.0156507 0.0135282 0.975366
43 1 0.189706 0.158937 0.769725
262 1 0.0741626 0.0748477 0.839808
76 1 0.128742 0.222199 0.914341
328 2 0.0387007 0.139074 0.965293
254 1 0.203278 0.0110732 0.773373
18 1 0.149875 0.0761519 0.981227
5 1 0.410759 0.194213 0.973419
185 1 0.364078 0.00992602 0.78564
296 2 0.397767 0.065636 0.927418
288 1 0.284215 0.111353 0.872456
24 1 0.44982 0.126615 0.838723
169 1 0.544488 0.0350237 0.771777
111 1 0.731483 0.208077 0.755882
174 1 0.563226 0.110052 0.968597
302 2 0.695031 0.183525 0.886647
28 1 0.675007 0.0689226 0.836415
15 1 0.579233 0.211918 0.80494
298 2 0.634593 0.0017328 0.94604
276 1 0.827166 0.208584 0.954636
172 1 0.758524 0.0657548 0.950954
280 1 0.832956 0.115021 0.824385
320 2 0.898207 0.0789697 0.931569
165 1 0.96469 0.187286 0.863769
93 1 0.0474476 0.327294 0.845214
354 2 0.107481 0.342218 0.956779
203 1 0.174593 0.308631 0.766762
237 1 0.0669546 0.459751 0.78495
250 1 0.182399 0.405492 0.880316
242 1 0.0360133 0.442298 0.937524
204 1 0.317254 0.390794 0.775039
140 1 0.285111 0.267282 0.882245
312 2 0.370747 0.333228 0.968598
330 2 0.442934 0.385622 0.778288
224 1 0.43539 0.438707 0.885417
256 1 0.44102 0.28603 0.849706
210 1 0.556882 0.271031 0.962428
347 2 0.619273 0.383937 0.959558
167 1 0.700254 0.309335 0.874078
214 1 0.569758 0.381808 0.840907
92 1 0.715261 0.452998 0.923698
305 2 0.846168 0.476505 0.936137
194 1 0.823927 0.44224 0.818739
82 1 0.97835 0.269297 0.985925
263 1 0.835413 0.356688 0.958709
339 2 0.935641 0.378731 0.865652
19 1 0.854767 0.291105 0.812666
31 1 0.0825924 0.722916 0.202102
119 1 0.171655 0.636861 0.0881802
87 1 0.0276773 0.525153 0.0961154
332 2 0.195446 0.718092 0.247432
306 2 0.106562 0.592816 0.195862
127 1 0.000707653 0.681378 0.0749875
335 2 0.256533 0.726436 0.0347701
209 1 0.448707 0.660005 0.201189
95 1 0.296478 0.68681 0.174535
325 2 0.423353 0.686453 0.0779814
178 1 0.453804 0.545102 0.0445069
243 1 0.317182 0.610615 0.0205747
45 1 0.354454 0.541867 0.16367
322 2 0.253067 0.534412 0.104992
349 2 0.592096 0.651967 0.184703
205 1 0.578539 0.649707 0.0506833
144 1 0.70192 0.705113 0.138013
85 1 0.533445 0.541456 0.24229
26 1 0.731789 0.562478 0.0395776
118 1 0.683915 0.584594 0.223027
102 1 0.847105 0.678683 0.115535
234 1 0.867096 0.512614 0.170653
208 1 0.971668 0.627531 0.221081
273 1 0.890108 0.567783 0.00906436
199 1 0.13041 0.779762 0.0096787
62 1 0.0941935 0.852322 0.138709
252 1 0.247602 0.843129 0.143959
128 1 0.000371857 0.857133 0.0146604
51 1 0.0790916 0.985982 0.224698
190 1 0.14351 0.922847 0.00265337
150 1 0.37301 0.791213 0.0318439
152 1 0.35284 0.946609 0.137682
226 1 0.411954 0.811371 0.199694
310 2 0.462894 0.897048 0.0752672
346 2 0.26532 0.957061 0.0298134
297 2 0.389095 0.993327 0.247961
162 1 0.505319 0.918364 0.201195
176 1 0.516244 0.779497 0.0871803
292 2 0.661201 0.837372 0.103564
241 1 0.578825 0.924832 0.0472203
33 1 0.663636 0.937963 0.181739
286 1 0.738687 0.823867 0.23603
11 1 0.589395 0.792944 0.221197
89 1 0.714102 0.916941 0.00794803
334 2 0.907409 0.765906 0.0457074
9 1 0.933696 0.786824 0.194833
189 1 0.809928 0.831448 0.0906091
294 2 0.846999 0.877148 0.222065
131 1 0.959484 0.95528 0.123831
239 1 0.802045 0.980494 0.148178
235 1 0.139501 0.686978 0.353649
357 2 0.0161707 0.616428 0.352885
158 1 0.215834 0.592611 0.265682
220 1 0.0873071 0.522313 0.307718
236 1 0.0110604 0.529286 0.448038
314 2 0.226329 0.7334 0.451375
53 1 0.199144 0.537857 0.409465
358 2 0.360741 0.613929 0.26542
195 1 0.449051 0.568358 0.390234
17 1 0.315819 0.638975 0.413361
188 1 0.440413 0.716964 0.341057
269 1 0.596381 0.656872 0.320396
246 1 0.603575 0.626092 0.478626
291 2 0.563007 0.519699 0.432274
170 1 0.858926 0.513751 0.47374
268 1 0.927834 0.512942 0.315589
340 2 0.798358 0.539234 0.27593
217 1 0.751597 0.606881 0.390191
23 1 0.901415 0.655102 0.387408
36 1 0.824304 0.701438 0.263764
315 2 0.0125709 0.869215 0.262889
69 1 0.10529 0.80058 0.451586
223 1 0.144321 0.842341 0.291601
348 2 0.126257 0.967442 0.356054
213 1 0.214835 0.917877 0.433791
267 1 0.0127742 0.926608 0.392032
215 1 0.0117393 0.763514 0.3283
73 1 0.275183 0.922813 0.266254
282 1 0.341432 0.770507 0.46201
147 1 0.283066 0.76436 0.316508
34 1 0.402986 0.885703 0.346417
99 1 0.492489 0.953013 0.494382
129 1 0.633918 0.996163 0.429104
38 1 0.676999 0.750992 0.412633
157 1 0.511915 0.992409 0.329831
289 2 0.5034 0.82093 0.313192
122 1 0.634824 0.876141 0.344846
183 1 0.51918 0.802169 0.451385
331 2 0.639777 0.848456 0.490882
187 1 0.871546 0.840526 0.337725
109 1 0.806468 0.76339 0.481005
278 1 0.933096 0.967231 0.26666
168 1 0.904517 0.894574 0.495648
103 1 0.754205 0.89923 0.43544
191 1 0.779772 0.959773 0.289035
318 2 0.882345 0.973324 0.382516
27 1 0.968342 0.750875 0.485856
74 1 0.173154 0.661429 0.685365
300 2 0.00868617 0.637658 0.541382
202 1 0.101148 0.540221 0.652828
303 2 0.0813292 0.748524 0.741737
260 1 0.232765 0.543757 0.572191
90 1 0.138011 0.642036 0.505216
49 1 0.0794433 0.748069 0.598764
154 1 0.427365 0.614818 0.6503
6 1 0.286555 0.680198 0.575552
345 2 0.286986 0.590659 0.676205
329 2 0.367301 0.585887 0.533161
160 1 0.33619 0.730889 0.739506
192 1 0.490274 0.528408 0.545784
86 1 0.444198 0.680605 0.502137
101 1 0.584237 0.594438 0.645267
324 2 0.54415 0.73517 0.551631
163 1 0.737216 0.572977 0.603469
25 1 0.510664 0.731661 0.686623
359 2 0.740858 0.50419 0.71505
321 2 0.745421 0.640512 0.508049
356 2 0.995314 0.541534 0.723576
281 1 0.992178 0.656353 0.677043
225 1 0.87933 0.632726 0.559185
211 1 0.862044 0.564364 0.724686
68 1 0.794284 0.719608 0.655736
40 1 0.959305 0.504605 0.60135
251 1 0.0381398 0.889217 0.560468
117 1 0.147912 0.857653 0.705391
248 1 0.20599 0.830136 0.564826
261 1 0.187154 0.997898 0.614733
277 1 0.0563262 0.989696 0.705484
316 2 0.25347 0.767868 0.662823
32 1 0.337747 0.932837 0.526927
107 1 0.393599 0.782826 0.599649
293 2 0.414033 0.828095 0.715982
3 1 0.437492 0.958563 0.653594
65 1 0.29675 0.894897 0.679956
287 1 0.673916 0.755496 0.572506
264 1 0.673201 0.824599 0.705418
58 1 0.536994 0.859204 0.606752
313 2 0.611011 0.936037 0.69612
193 1 0.646871 0.960613 0.574392
63 1 0.729246 0.9743 0.710019
97 1 0.838399 0.877831 0.734233
66 1 0.772268 0.871721 0.592196
108 1 0.919199 0.786984 0.623539
112 1 0.998515 0.850923 0.734048
60 1 0.913523 0.974181 0.617965
319 2 0.134452 0.520732 0.885806
64 1 0.0874657 0.617736 0.802871
10 1 0.190215 0.661484 0.930032
81 1 0.0491517 0.596386 0.949286
270 1 0.211869 0.503612 0.756989
116 1 0.276307 0.527699 0.893685
327 2 0.252902 0.640785 0.799332
255 1 0.477965 0.672462 0.934882
212 1 0.341024 0.696343 0.887104
186 1 0.381459 0.566788 0.791259
350 2 0.391751 0.569226 0.936081
341 2 0.454811 0.72878 0.81617
231 1 0.646897 0.508166 0.79287
275 1 0.718423 0.635303 0.750927
44 1 0.529119 0.612961 0.7943
4 1 0.557903 0.516477 0.93121
240 1 0.653854 0.63878 0.913211
115 1 0.802457 0.591753 0.874059
133 1 0.895012 0.729957 0.774453
83 1 0.897943 0.705614 0.926746
29 1 0.94668 0.546955 0.854411
77 1 0.764442 0.712555 0.983265
207 1 0.0616094 0.758403 0.874968
48 1 0.199494 0.762224 0.803497
80 1 0.0825906 0.911183 0.856485
311 2 0.214652 0.885793 0.829952
46 1 0.256401 0.970121 0.908078
2 1 0.251448 0.827675 0.942736
201 1 0.380018 0.937217 0.986758
155 1 0.375657 0.8551 0.836584
265 1 0.489109 0.833365 0.931265
106 1 0.624935 0.784691 0.977423
141 1 0.501483 0.984648 0.910214
134 1 0.509939 0.87668 0.77213
113 1 0.639534 0.893634 0.867186
285 1 0.595569 0.758343 0.81673
353 2 0.839343 0.826601 0.957589
216 1 0.871832 0.956096 0.991397
114 1 0.946419 0.847206 0.878444
247 1 0.765644 0.771991 0.846527
8 1 0.789184 0.936901 0.857766
143 1 0.942422 0.994906 0.83362
ITEM: TIMESTEP
100000
ITEM: NUMBER OF ATOMS
360
ITEM: BOX BOUNDS pp pp pp
0.0000000000000000e+00 6.6943295008216896e+00
0.0000000000000000e+00 6.6943295008216896e+00
0.0000000000000000e+00 6.6943295008216896e+00
ITEM: ATOMS id type xs ys zs
149 1 0.0925299 0.11318 0.168809
14 1 0.175997 0.199241 0.0640284
337 2 0.153091 0.0641171 0.029644
342 2 0.975217 0.0756171 0.136041
47 1 0.071127 0.269173 0.168372
67 1 0.238427 0.425553 0.351579
18 1 0.260396 0.119294 0.18996
344 2 0.329037 0.214413 0.122254
138 1 0.457408 0.193407 0.0951317
250 1 0.314686 0.117552 0.046926
59 1 0.392172 0.246928 0.2262
5 1 0.412682 0.0767036 0.182407
94 1 0.524111 0.153724 0.240767
56 1 0.678991 0.111333 0.197057
180 1 0.604087 0.216802 0.122715
132 1 0.545324 0.0729391 0.0961586
84 1 0.925044 0.192922 0.139321
100 1 0.804752 0.182769 0.25972
182 1 0.77575 0.216168 0.0974037
227 1 0.833323 0.073513 0.114953
140 1 0.261936 0.34282 0.0478546
78 1 0.996284 0.415965 0.11549
319 2 0.128701 0.310521 0.0555227
10 1 0.15816 0.408861 0.15798
326 2 0.0606851 0.448273 0.230227
184 1 0.0217219 0.283204 0.00789611
126 1 0.231768 0.276558 0.187104
45 1 0.420368 0.344263 0.0968597
118 1 0.63643 0.49284 0.0108624
186 1 0.261458 0.496717 0.0990672
178 1 0.325847 0.385251 0.216391
295 2 0.505926 0.296917 0.172789
52 1 0.581074 0.37131 0.0931789
130 1 0.713437 0.311094 0.217171
96 1 0.641178 0.444253 0.261497
102 1 0.730883 0.461689 0.139051
20 1 0.0409035 0.114673 0.0240735
355 2 0.771064 0.342917 0.10442
72 1 0.871278 0.334791 0.181445
229 1 0.866564 0.490519 0.0767957
121 1 0.666167 0.123236 0.00671157
219 1 0.881555 0.346995 0.0337721
301 2 0.133655 0.131136 0.427261
12 1 0.16204 0.177649 0.310324
69 1 0.241323 0.0839606 0.4521
267 1 0.0586822 0.0684918 0.32629
259 1 0.207398 0.013691 0.305679
71 1 0.419793 0.456193 0.382835
282 1 0.464449 0.024534 0.338764
3 1 0.423539 0.0555058 0.488697
136 1 0.373145 0.208388 0.477928
232 1 0.346446 0.131165 0.342896
272 1 0.514151 0.163979 0.396909
183 1 0.614353 0.0438462 0.318281
191 1 0.665162 0.196054 0.329845
137 1 0.654206 0.107403 0.458372
331 2 0.553059 0.0254781 0.428202
304 2 0.650693 0.232093 0.45327
16 1 0.914556 0.0601804 0.256554
75 1 0.761022 0.0343935 0.299919
238 1 0.964272 0.130525 0.420954
21 1 0.979837 0.21076 0.285901
266 1 0.784782 0.217569 0.442523
103 1 0.828026 0.0518768 0.458396
215 1 0.0729906 0.0339259 0.504535
91 1 0.80427 0.440937 0.274583
166 1 0.0542432 0.248196 0.409382
53 1 0.136466 0.336806 0.305837
261 1 0.137395 0.369793 0.464214
221 1 0.272247 0.280812 0.347804
317 2 0.910554 0.458575 0.196602
171 1 0.475329 0.435097 0.237809
175 1 0.852189 0.314286 0.344495
345 2 0.430538 0.365953 0.474479
164 1 0.306918 0.349634 0.475253
152 1 0.434926 0.303748 0.361976
170 1 0.845624 0.465566 0.426016
142 1 0.0888071 0.486804 0.354675
70 1 0.564043 0.304055 0.284872
135 1 0.689721 0.342746 0.374078
338 2 0.532489 0.411452 0.360645
129 1 0.557419 0.3163 0.460732
192 1 0.539435 0.484087 0.467902
236 1 0.991346 0.40336 0.456595
61 1 0.976223 0.379117 0.284444
22 1 0.19744 0.234741 0.482771
343 2 0.757803 0.331972 0.477096
123 1 0.694097 0.493554 0.406114
198 1 0.452643 0.493666 0.0977615
1 1 0.166896 0.0998816 0.613253
277 1 -0.0105385 0.169473 0.710734
311 2 0.0336334 0.0608343 0.626429
251 1 0.102235 0.0792696 0.759524
244 1 0.0448465 0.180706 0.551764
65 1 0.258847 0.150392 0.729768
222 1 0.385327 0.240916 0.727306
254 1 0.319209 0.107749 0.601484
134 1 0.461495 0.140308 0.656422
169 1 0.609907 0.117455 0.680115
15 1 0.545835 0.0361626 0.566844
257 1 0.548343 0.189469 0.543067
279 1 0.696193 0.232036 0.580009
218 1 0.91733 0.266503 0.490472
237 1 0.810515 0.362877 0.875979
263 1 0.781681 0.498249 0.941086
153 1 0.908889 0.118801 0.574978
276 1 0.74098 0.205636 0.748119
8 1 0.758195 0.0562258 0.739992
323 2 0.8533 0.141631 0.71306
19 1 0.76708 0.0985237 0.592183
262 1 0.930976 0.0351864 0.700704
139 1 0.392485 0.464994 0.543385
200 1 0.131509 0.275149 0.630306
74 1 0.220678 0.433836 0.610071
104 1 0.11198 0.384425 0.724974
57 1 0.0759939 0.485505 0.623398
327 2 0.0237725 0.2879 0.731501
356 2 0.0433813 0.300514 0.536222
167 1 0.738043 0.476243 0.649348
258 1 0.28399 0.26375 0.611916
214 1 0.436436 0.305935 0.588304
7 1 0.293806 0.382705 0.738182
352 2 0.332797 0.376044 0.608829
50 1 0.417367 0.475437 0.722237
330 2 0.456039 0.349516 0.72527
299 2 0.593037 0.318235 0.590664
230 1 0.534528 0.433691 0.614809
111 1 0.68624 0.350805 0.689829
156 1 0.671202 0.39588 0.535005
309 2 0.686956 0.00846521 0.547687
181 1 0.55853 0.263074 0.7254
196 1 0.977895 0.464946 0.743166
197 1 0.869631 0.258799 0.656761
54 1 0.983343 0.360605 0.627935
92 1 0.845201 0.397292 0.73219
40 1 0.830501 0.382324 0.561097
165 1 0.197596 0.124112 0.920218
177 1 0.0422317 0.170182 0.884343
328 2 0.245462 0.0566093 0.81396
145 1 0.891396 0.198331 0.987084
43 1 0.362954 0.0319432 0.739859
354 2 0.276537 0.236213 0.978264
93 1 0.348864 0.0986839 0.877929
284 1 0.469961 0.201205 0.839688
245 1 0.485911 0.11645 0.962408
28 1 0.504541 0.0635799 0.787742
313 2 0.63815 0.0177099 0.776151
256 1 0.622352 0.150424 0.848773
124 1 0.732947 0.0474014 0.894572
42 1 0.570318 0.262377 0.975192
335 2 0.868275 0.491147 0.820909
30 1 0.904646 0.0357158 0.974083
105 1 0.772351 0.213998 0.901922
35 1 0.914728 0.252618 0.804141
351 2 0.0329404 0.0314878 0.93215
173 1 0.880255 0.10354 0.836033
203 1 0.141534 0.246063 0.782977
82 1 0.0398025 0.340849 0.856034
270 1 0.148698 0.273801 0.935806
260 1 0.222982 0.395931 0.882143
306 2 0.928563 0.313444 0.916076
194 1 0.935747 0.446684 0.917165
204 1 0.402516 0.245988 0.96884
350 2 0.452484 0.486538 0.858518
233 1 0.284044 0.246604 0.8524
161 1 0.357732 0.443605 0.975236
116 1 0.401761 0.35366 0.850377
249 1 0.729009 0.477396 0.802066
231 1 0.553786 0.414647 0.778005
210 1 0.653798 0.307875 0.84355
224 1 0.51103 0.406716 0.939009
312 2 0.5237 0.301655 0.868492
347 2 0.659545 0.438006 0.905361
141 1 0.580572 0.00791656 0.921514
339 2 0.818913 0.210552 0.552922
242 1 0.083946 0.4195 0.989179
206 1 0.697289 0.3442 1.00091
281 1 0.0958006 0.485676 0.845947
320 2 0.80292 0.111498 0.996139
220 1 0.0673596 0.701909 0.165926
268 1 0.0893831 0.535293 0.105734
148 1 0.174879 0.554097 0.23876
29 1 0.356927 0.600557 0.0258598
79 1 0.198469 0.788322 0.151745
39 1 0.208753 0.636915 0.110345
274 1 0.502408 0.676428 0.0612849
297 2 0.477322 0.584909 0.186923
255 1 0.356451 0.546035 0.206602
119 1 0.356551 0.70241 0.148989
336 2 0.139082 0.943302 0.433591
357 2 0.269348 0.633725 0.2307
353 2 0.689231 0.63051 0.170489
144 1 0.734144 0.594667 0.045038
33 1 0.56834 0.686603 0.220101
243 1 0.596863 0.552409 0.158179
294 2 0.608703 0.619834 0.0535988
159 1 0.987445 0.561678 0.244288
252 1 0.956624 0.624204 0.099162
9 1 0.82088 0.600773 0.176636
125 1 0.913219 0.700628 0.233582
151 1 0.2815 0.738375 0.0253175
31 1 0.952035 0.794077 0.378648
190 1 0.047003 0.975001 0.18378
127 1 0.0635865 0.839944 0.105442
199 1 0.196693 0.87192 0.0188396
296 2 0.239413 0.912045 0.229805
73 1 0.123806 0.852917 0.259345
90 1 0.0734777 0.579247 0.480339
325 2 0.412934 0.773949 0.0627214
201 1 0.329986 0.863548 0.110661
24 1 0.436892 0.971379 0.0593586
316 2 0.300314 0.720874 0.355394
11 1 0.759132 0.743263 0.201549
310 2 0.568301 0.936206 0.0338938
122 1 0.515292 0.827603 0.0995051
157 1 0.526862 0.965186 0.208506
241 1 0.659942 0.96228 0.11016
360 2 0.669717 0.959994 0.237028
172 1 0.664394 0.728334 0.0768754
239 1 0.643315 0.839589 0.202893
349 2 0.96167 0.523781 0.379713
131 1 0.840287 0.70581 0.0696432
298 2 0.774052 0.825196 0.0801795
334 2 0.962852 0.762241 0.131314
146 1 0.79156 0.925811 0.178208
110 1 0.919896 0.897657 0.0721331
318 2 0.915113 0.961751 0.187612
62 1 0.96343 0.852184 0.226268
193 1 0.66395 0.95867 0.439615
300 2 0.157954 0.588791 0.369618
158 1 0.036255 0.655199 0.350358
226 1 0.185456 0.70212 0.298293
76 1 0.0708032 0.959938 0.0178966
51 1 0.873531 0.930791 0.336557
195 1 0.0967366 0.769112 0.413721
17 1 0.292963 0.57968 0.353715
120 1 0.452651 0.611692 0.418922
209 1 0.417561 0.653587 0.280574
358 2 0.535638 0.685363 0.358028
85 1 0.639885 0.645709 0.434854
36 1 0.707491 0.590731 0.299829
205 1 0.559768 0.553683 0.322071
329 2 0.770147 0.613095 0.410019
41 1 0.656734 0.741803 0.321148
187 1 0.884241 0.66223 0.470774
286 1 0.802531 0.742178 0.356996
283 1 0.868611 0.594291 0.331514
289 2 0.0437208 0.762633 0.28452
223 1 0.0397696 0.912571 0.368912
95 1 0.209917 0.862914 0.377788
27 1 0.225302 0.675428 0.453674
315 2 0.847276 0.819842 0.238817
188 1 0.477348 0.803167 0.241742
346 2 0.453393 0.887499 0.333222
107 1 0.476176 0.915091 0.4615
147 1 0.415843 0.775013 0.383828
162 1 0.318503 0.8016 0.26451
55 1 0.380677 0.933711 0.242879
34 1 0.327323 0.966473 0.400751
38 1 0.803363 0.873468 0.468528
278 1 0.734302 0.875302 0.318445
86 1 0.567696 0.788059 0.443596
99 1 0.584562 0.895321 0.32486
307 2 0.700954 0.791626 0.427024
174 1 0.774522 0.961285 0.0158525
37 1 0.219961 0.513251 0.480794
308 2 0.188038 0.818139 0.505564
88 1 0.316122 0.840335 0.485873
46 1 0.206299 0.988879 0.121063
332 2 0.97943 0.513292 0.0178809
87 1 0.12359 0.724245 0.0190113
291 2 0.538988 0.636401 0.51184
340 2 0.0102274 0.696871 0.478253
348 2 0.949471 0.990318 0.419472
23 1 0.127899 0.7229 0.557041
202 1 0.200014 0.581295 0.637712
271 1 0.994234 0.653908 0.58999
6 1 0.328392 0.610008 0.532207
246 1 0.461667 0.599641 0.606875
235 1 0.228562 0.974556 0.691748
160 1 0.346194 0.615126 0.706365
44 1 0.592699 0.5503 0.70856
253 1 0.631091 0.559144 0.563054
341 2 0.55928 0.690302 0.725897
163 1 0.732695 0.650012 0.670025
273 1 0.191064 0.538481 0.967339
290 2 0.317222 0.51528 0.632935
101 1 0.606239 0.710943 0.601685
217 1 0.782985 0.565706 0.521321
359 2 0.845531 0.663043 0.594398
225 1 0.891461 0.709731 0.705971
115 1 0.873645 0.558477 0.6688
64 1 0.218523 0.511143 0.771449
234 1 0.930032 0.517536 0.541666
213 1 0.0708527 0.869315 0.519546
32 1 0.219545 0.961767 0.537011
98 1 0.0270786 0.787638 0.664934
293 2 0.484288 0.962788 0.645437
49 1 0.177868 0.845647 0.624313
60 1 0.0600252 0.947297 0.674444
324 2 0.584283 0.93087 0.534012
154 1 0.319199 0.769843 0.628006
25 1 0.448754 0.724905 0.683448
13 1 0.375744 0.956166 0.582414
58 1 0.433836 0.725701 0.526017
248 1 0.396759 0.866221 0.730987
228 1 0.619938 0.943795 0.668193
314 2 0.26136 0.837806 0.720285
83 1 0.88432 0.610826 0.96928
287 1 0.678788 0.848994 0.556772
275 1 0.501995 0.845157 0.596375
68 1 0.640604 0.804787 0.732042
109 1 0.786042 0.791169 0.645246
321 2 0.75596 0.890877 0.738486
168 1 0.926551 0.794582 0.539959
264 1 0.780425 0.950327 0.624926
114 1 0.909933 0.88848 0.696331
112 1 0.0534926 0.610591 0.715464
208 1 0.946948 0.961395 0.554286
212 1 0.174083 0.640503 0.852616
143 1 0.149903 0.982975 0.881044
269 1 0.748358 0.712766 0.519325
26 1 0.495609 0.567064 0.966126
150 1 0.429926 0.715586 0.929565
322 2 0.286781 0.673354 0.917264
265 1 0.471024 0.614032 0.808987
155 1 0.341085 0.557805 0.865272
4 1 0.596039 0.540963 0.858742
240 1 0.667639 0.666993 0.804163
305 2 0.691604 0.594038 0.923995
189 1 0.743411 0.708008 0.932806
106 1 0.591505 0.682803 0.934403
108 1 0.798304 0.798092 0.815933
211 1 0.949614 0.593297 0.825273
66 1 0.943949 0.841009 0.838199
303 2 0.891865 0.716092 0.859915
77 1 0.805431 0.61052 0.827006
133 1 0.0454925 0.611941 0.951977
81 1 0.186661 0.723946 0.708248
207 1 0.0427252 0.721571 0.810098
179 1 0.0720231 0.849349 0.917463
117 1 0.130961 0.856603 0.771575
128 1 0.233774 0.792989 0.893072
97 1 -0.000830918 0.976711 0.818123
185 1 0.429513 0.975643 0.887163
288 1 0.341936 0.731331 0.796694
292 2 0.424121 0.826542 0.851454
2 1 0.288448 0.91858 0.831443
48 1 0.371814 0.857542 0.963894
63 1 0.67936 0.913867 0.846606
302 2 0.641694 0.792499 0.870562
247 1 0.528029 0.762673 0.818973
176 1 0.518189 0.848429 0.939497
285 1 0.538207 0.90913 0.796711
113 1 0.663301 0.847862 0.992454
89 1 0.835873 0.834103 0.965142
216 1 0.960477 0.747639 0.9832
280 1 0.833681 0.948364 0.824389
333 2 0.946403 0.908575 0.953238
80 1 0.278002 0.993478 0.965182
ITEM: TIMESTEP
200000
ITEM: NUMBER OF ATOMS
360
ITEM: BOX BOUNDS pp pp pp
0.0000000000000000e+00 6.6943295008216896e+00
0.0000000000000000e+00 6.6943295008216896e+00
0.0000000000000000e+00 6.6943295008216896e+00
ITEM: ATOMS id type xs ys zs
47 1 0.217228 0.131393 0.253601
14 1 0.216289 0.112615 0.104133
190 1 0.0567384 0.0889014 0.151235
342 2 0.15979 0.0203344 0.197449
78 1 0.0812643 0.226131 0.0826871
311 2 0.0311352 0.350085 0.288585
219 1 0.753702 0.332981 0.00615174
245 1 0.299916 0.0210634 0.19383
140 1 0.35782 0.16301 0.162283
250 1 0.473999 0.0335252 0.176598
80 1 0.366676 0.0451445 0.057296
204 1 0.467347 0.18575 0.0400791
132 1 0.590455 0.137693 0.142671
310 2 0.72618 0.0732348 0.0594521
51 1 0.735005 0.0968723 0.212909
100 1 0.748016 0.198501 0.101533
167 1 0.847664 0.387156 0.475076
56 1 0.862074 0.105217 0.121947
304 2 0.951609 0.187429 0.131967
317 2 0.945988 0.4933 0.0942768
238 1 0.81411 0.290855 0.229194
177 1 0.9858 0.365303 0.0339626
237 1 0.100755 0.369875 0.149668
126 1 0.21942 0.255894 0.160756
53 1 0.0182599 0.468062 0.198629
242 1 0.200797 0.315763 0.0145695
67 1 0.284401 0.455926 0.0781707
178 1 0.35828 0.330474 0.177474
354 2 0.314752 0.272423 0.0718708
52 1 0.466783 0.337408 0.0764171
70 1 0.495124 0.243086 0.203883
295 2 0.429483 0.434674 0.154002
26 1 0.632747 0.308981 0.0931032
180 1 0.567428 0.454199 0.13257
320 2 0.694595 0.454343 0.0686582
326 2 0.571724 0.343471 0.225326
234 1 0.759171 0.336687 0.363041
267 1 0.923667 0.0166122 0.349689
72 1 0.701803 0.398276 0.196188
21 1 0.959605 0.305235 0.191219
61 1 0.877035 0.258861 0.053994
252 1 0.851021 0.397627 0.119821
221 1 0.0928476 0.239365 0.250311
282 1 0.189681 0.133694 0.413916
259 1 0.0741236 0.0374544 0.29083
319 2 0.187899 0.232649 0.335537
12 1 0.032637 0.144779 0.396173
138 1 0.424404 0.156645 0.298035
344 2 0.320158 0.0901412 0.312859
3 1 0.345294 0.074202 0.444233
272 1 0.399899 0.262797 0.430538
59 1 0.303919 0.259379 0.2939
348 2 0.962307 0.01515 0.212058
236 1 0.928533 0.268201 0.35284
94 1 0.500882 0.130036 0.434142
191 1 0.653025 0.171588 0.403417
157 1 0.578437 0.113226 0.287086
299 2 0.72688 0.0851285 0.470032
84 1 0.662093 0.25476 0.23743
71 1 0.279597 0.442439 0.502624
170 1 0.90973 0.42909 0.312673
277 1 0.870205 0.123523 0.46391
184 1 0.932156 0.134522 0.247304
266 1 0.761398 0.0276529 0.356242
175 1 0.799285 0.176819 0.324473
301 2 0.82361 0.230556 0.445938
357 2 0.232568 0.386361 0.174678
17 1 0.0905449 0.466162 0.346089
54 1 0.991363 0.425775 0.453545
261 1 0.188498 0.366616 0.299105
142 1 0.0885344 0.285693 0.401068
356 2 0.159935 0.403345 0.425163
36 1 0.7775 0.497701 0.301681
152 1 0.247761 0.303808 0.435943
279 1 0.497628 0.397097 0.440238
336 2 0.128275 0.193822 0.506929
130 1 0.473683 0.430216 0.268568
255 1 0.342424 0.396012 0.356706
325 2 0.428794 0.312845 0.302647
217 1 0.721884 0.464368 0.438589
96 1 0.535734 0.26133 0.344034
343 2 0.626333 0.346494 0.436761
40 1 0.618909 0.409241 0.325044
37 1 0.337294 0.493673 0.221689
73 1 0.473177 0.0177903 0.346381
107 1 0.613119 0.0259149 0.412553
315 2 0.970434 0.0440896 0.466222
45 1 0.446372 0.482874 0.0333128
141 1 0.548785 0.0485193 0.00813592
22 1 0.168812 0.0842856 0.567488
1 1 0.129582 0.234731 0.630634
244 1 0.077394 0.0960302 0.692109
254 1 0.220026 0.122089 0.71511
306 2 0.859567 0.446992 0.97467
169 1 0.561272 0.0128555 0.699324
69 1 0.322939 0.0374719 0.609003
257 1 0.414788 0.169924 0.550558
314 2 0.428417 0.0791972 0.653449
222 1 0.350739 0.175544 0.693847
147 1 0.49877 0.0288725 0.561103
28 1 0.515191 0.163322 0.742175
339 2 0.624038 0.122725 0.6853
111 1 0.62586 0.245545 0.641555
15 1 0.61125 0.123833 0.542368
136 1 0.621641 0.405126 0.558441
105 1 0.883842 0.332284 0.924931
30 1 0.994216 0.233643 0.689437
173 1 0.997502 0.117273 0.5703
197 1 0.763189 0.149451 0.569409
276 1 0.874115 0.263335 0.588254
262 1 0.866096 0.0963459 0.680629
210 1 0.749156 0.174032 0.713919
312 2 0.797546 0.484435 0.538076
20 1 0.0546484 0.0165922 0.966693
232 1 0.267989 0.20143 0.558893
57 1 0.0791166 0.374611 0.69212
200 1 0.128324 0.382953 0.538042
327 2 0.232033 0.33013 0.601768
258 1 0.256379 0.444306 0.652613
129 1 0.360224 0.325228 0.560555
214 1 0.478022 0.276756 0.655641
338 2 0.494014 0.39983 0.615106
230 1 0.579658 0.426971 0.698033
335 2 0.0979969 0.387088 0.980398
35 1 0.764809 0.380368 0.622155
196 1 0.934779 0.424289 0.603865
166 1 0.00878047 0.280642 0.533229
231 1 0.709182 0.482921 0.762814
145 1 0.840175 0.29164 0.74134
153 1 0.713485 0.0253847 0.674836
82 1 0.972015 0.341372 0.789974
121 1 0.804088 0.129108 0.964317
97 1 0.127679 0.0298725 0.82783
165 1 0.156816 0.175409 0.971097
328 2 0.216753 0.131364 0.849632
251 1 0.107048 0.209124 0.790657
351 2 0.0609588 0.135946 0.891611
233 1 0.234896 0.0374216 0.962818
93 1 0.323964 0.1884 0.987489
65 1 0.370373 0.104727 0.828347
313 2 0.422822 0.0850841 0.949105
284 1 0.38815 0.251831 0.826655
248 1 0.529046 0.0140383 0.847231
42 1 0.640067 0.17353 0.997921
347 2 0.649048 0.215605 0.782133
256 1 0.649136 0.0914045 0.812486
285 1 0.525315 0.161199 0.897992
206 1 0.743929 0.229738 0.871271
174 1 0.69262 0.0295829 0.948476
208 1 0.885522 0.00106055 0.557264
227 1 0.970473 0.0740767 0.80975
124 1 0.803693 0.0473878 0.821806
182 1 0.894003 0.195097 0.84979
263 1 0.983865 0.491177 0.72656
211 1 0.128599 0.363871 0.838767
76 1 0.0454513 0.265625 0.929864
270 1 0.231338 0.264006 0.877941
260 1 0.213114 0.4453 0.937383
104 1 0.307244 0.417219 0.818045
203 1 0.255895 0.301639 0.723602
355 2 0.779691 0.350538 0.849404
218 1 0.706308 0.277997 0.510585
139 1 0.423271 0.392347 0.733812
7 1 0.348138 0.361838 0.973335
352 2 0.456058 0.297727 0.959674
224 1 0.539087 0.299631 0.790558
243 1 0.741532 0.463813 0.91202
161 1 0.480544 0.396286 0.890253
92 1 0.687355 0.327448 0.768155
186 1 0.610057 0.318981 0.924196
330 2 0.613028 0.417201 0.836691
102 1 1.00256 0.453508 0.902853
118 1 0.85558 0.448227 0.799762
198 1 0.604932 0.469939 0.975487
74 1 0.395397 0.480626 0.601038