
Host: cs062.hpc.nyu.edu

Timers On : Wed Nov 29 12:16:27 2023
Timers Off: Wed Nov 29 12:16:28 2023

Wall Time:        0.38 seconds

                                                       Time (seconds)
Module                                       User      System        Wall        Calls

--------------------------------------------------------------------------------------

**************************************************************************************
