ITEM: TIMESTEP
100000
ITEM: NUMBER OF ATOMS
2048
ITEM: BOX BOUNDS pp pp pp
0.0000000000000000e+00 1.3679807573413575e+01
0.0000000000000000e+00 1.3679807573413575e+01
0.0000000000000000e+00 1.3679807573413575e+01
ITEM: ATOMS id type xs ys zs
377 1 0.304594 0.399628 0.473948
1237 1 0.180191 0.453896 0.10181
344 1 0.324429 0.328888 0.283227
1340 1 0.373903 0.145678 0.0113413
504 1 0.0408606 0.296935 0.241939
6 1 0.0763272 0.404543 0.326022
423 1 0.314814 0.318807 0.356151
382 1 0.163573 0.309149 0.217374
998 1 0.217884 0.416534 0.35431
1230 1 0.250559 0.478356 0.155768
2037 1 0.315018 0.333953 0.0450526
1536 1 0.151109 0.0259871 0.28705
1648 1 0.0299751 0.372012 0.272921
1951 1 0.0324767 0.350787 0.369798
103 1 0.226308 0.0711967 0.500252
1634 1 0.0109718 0.140055 0.237958
1707 1 0.345653 0.175039 0.118554
1640 1 0.281979 0.42326 0.11809
199 1 0.198165 0.137434 0.0999222
506 1 0.229586 0.365963 0.0661145
405 1 0.474252 0.249672 0.418541
1279 1 0.109707 0.30112 0.0891881
590 1 0.199169 0.474921 0.460363
870 1 0.138378 0.0571431 0.161873
1760 1 0.113619 0.371246 0.397699
1198 1 0.322221 0.470524 0.162731
657 1 0.400117 0.226017 0.408517
1255 1 0.267494 0.483682 0.370083
246 1 0.410397 0.466106 0.154588
868 1 0.397311 0.205626 0.170892
1019 1 0.0151341 0.359591 0.470781
843 1 0.0226242 0.157235 0.450962
908 1 0.269759 0.267278 0.185113
633 1 0.198799 0.269271 0.132856
1402 1 0.291751 0.384117 0.203548
311 1 0.0703445 0.0363838 0.146017
1530 1 0.170525 0.328112 0.295148
1494 1 0.499846 0.0312261 0.204273
141 1 0.185181 0.21924 0.000584834
475 1 0.265905 0.00471242 0.177435
1202 1 0.039554 0.0605015 0.0745955
152 1 0.21987 0.370426 0.245648
1261 1 0.100153 0.347838 0.467569
1055 1 0.415351 0.422427 0.230347
1804 1 0.484236 0.00314134 0.287535
1965 1 0.0139961 0.33753 0.139844
239 1 0.052111 0.216861 0.483276
2000 1 0.0762575 0.488455 0.364392
713 1 0.290807 0.304172 0.113953
1720 1 0.364476 0.446257 0.100794
1601 1 0.444503 0.334045 0.449686
816 1 0.122567 0.196742 0.453873
279 1 0.298078 0.0362309 0.0927255
1294 1 0.416055 0.187337 0.0499845
1732 1 0.0734539 0.246418 0.0496654
171 1 0.0963428 0.453088 0.090213
643 1 0.479436 0.284923 0.324023
245 1 0.419835 0.224306 0.489059
85 1 0.29648 0.220142 0.137738
1015 1 0.372294 0.315015 -0.000800232
2001 1 0.468293 0.107877 0.014521
1563 1 0.0540596 0.146564 0.101989
698 1 0.065533 0.0778206 0.219825
209 1 0.343618 0.373814 0.396665
190 1 0.172153 0.180509 0.153601
756 1 0.118359 0.290974 0.0101215
790 1 0.475681 0.363428 0.319222
2035 1 0.29901 0.123946 0.224685
1289 1 0.170752 0.0374274 0.457985
1491 1 0.149238 0.454095 0.169728
1383 1 0.366869 0.38834 0.175533
1268 1 0.191964 0.435073 0.284766
1608 1 0.0378938 0.290834 0.0948775
1667 1 0.112189 0.0783591 0.0998649
384 1 0.225499 0.173276 0.49105
661 1 0.362562 0.271205 0.332057
829 1 0.371354 0.0662286 0.0387596
1116 1 0.0864388 0.283575 0.168894
1912 1 0.0767891 0.210943 0.368512
1151 1 0.329529 0.482935 0.246506
153 1 0.461377 0.115918 0.489361
1914 1 0.0070512 0.229709 0.248304
530 1 0.00479809 0.30947 0.316879
78 1 0.434653 0.394003 0.144598
1908 1 0.332975 0.238582 0.206073
419 1 0.398804 0.09314 0.243004
740 1 0.22674 0.118569 0.358481
221 1 0.00890734 0.190021 0.366437
407 1 0.107299 0.0100109 0.226059
1118 1 0.297989 0.0445239 0.0239338
757 1 0.417636 0.236738 0.100513
387 1 0.15301 0.375166 0.188525
374 1 0.486275 0.403454 0.248821
625 1 0.164432 0.346858 0.0476155
447 1 0.098523 0.378965 0.13604
700 1 0.167577 0.223202 0.0827314
1809 1 0.22091 0.409927 0.183282
1924 1 0.0632689 0.412554 0.426621
492 1 0.170244 0.33233 0.120599
718 1 0.0577427 0.127643 0.364747
1427 1 0.146028 0.0694416 0.0190937
1702 1 0.0776218 0.297725 0.398884
762 1 0.227038 0.117577 0.278497
939 1 0.026504 0.451555 0.476406
557 1 0.377496 0.387263 0.470983
381 1 0.188246 0.337051 0.466558
71 1 0.0358517 0.104785 0.156957
1353 1 0.395478 0.405321 0.0377513
300 1 0.221561 0.183506 0.301755
750 1 0.445422 0.133082 0.104139
1348 1 0.064802 0.0947592 0.492694
2040 1 0.170578 0.261745 0.269045
1799 1 0.260617 0.191727 0.0198426
1236 1 0.310396 0.317237 0.209683
119 1 0.470925 0.23446 0.255132
842 1 0.345925 0.228833 0.458865
469 1 0.240854 0.276657 0.0459753
1880 1 0.422102 0.0917878 0.328474
550 1 0.334835 0.05556 0.278301
334 1 0.121538 0.177882 0.202997
1888 1 0.053051 0.354382 0.0393057
1922 1 0.389667 0.127257 0.147013
94 1 0.26565 0.0639447 0.324921
707 1 0.229374 0.200756 0.114964
614 1 0.277311 0.152892 0.162883
148 1 0.123012 0.159143 0.0969403
1482 1 0.0143999 0.240792 0.42779
1164 1 0.187662 0.125039 0.0296545
1703 1 0.20719 0.01105 0.0498866
84 1 0.425227 0.0671363 0.165834
1299 1 0.100545 0.0187258 0.461392
1468 1 0.238549 0.190955 0.37896
777 1 0.192879 0.0994187 0.175949
1429 1 0.10355 0.115483 0.17024
969 1 0.0498893 0.48326 0.296263
738 1 0.210743 0.413879 0.013568
496 1 0.481633 0.325408 0.385992
1093 1 0.350248 0.271483 0.0985868
576 1 0.0859526 0.21174 0.141917
38 1 0.15473 0.161262 0.265286
1754 1 0.366617 0.298069 0.175237
299 1 0.466517 0.175173 0.450433
8 1 0.434515 0.0219496 0.474526
1701 1 0.39517 0.149769 0.363278
1605 1 0.301025 0.225888 0.372622
358 1 0.346394 0.158614 0.432726
532 1 0.0492251 0.450816 0.152186
1837 1 0.28913 0.240636 0.302815
249 1 0.281042 0.431571 0.258528
1611 1 0.267456 0.0614017 0.245975
1045 1 0.360196 0.0236363 0.138765
787 1 0.0843095 0.0637551 0.407431
878 1 0.114374 0.466934 0.430305
961 1 0.366761 0.168436 0.227581
1398 1 0.312251 0.119472 0.0501716
89 1 0.0890034 0.167489 0.306578
1867 1 0.475932 0.46512 0.399766
1918 1 0.408248 0.0370115 0.281481
1150 1 0.0577624 0.291047 0.474322
1790 1 0.233146 0.211277 0.233282
1188 1 0.330586 0.48762 0.499312
1004 1 0.383708 0.126348 0.0755088
441 1 0.176051 0.222207 0.408426
1312 1 0.110728 0.137095 0.412712
1304 1 0.190652 0.0637452 0.24083
886 1 0.17124 0.0991928 0.31852
1341 1 0.26152 0.0366754 0.418253
1185 1 0.425237 0.0423027 0.0881069
1145 1 0.424219 0.281162 0.376017
236 1 0.0935931 0.493184 0.0172269
444 1 0.115888 0.383608 0.260168
897 1 0.255497 0.374934 0.305302
233 1 0.00612796 0.415661 0.33713
1895 1 0.0129958 0.225541 0.0217974
814 1 0.237914 0.490575 0.223068
1005 1 0.0789583 0.0715648 0.320448
1737 1 0.274985 0.206264 0.43959
264 1 0.408944 0.436421 0.3135
1174 1 0.280273 0.415217 0.0418657
1417 1 0.352956 0.459559 0.435265
1714 1 0.317091 0.275408 0.418658
735 1 0.25648 0.339567 0.00164151
1504 1 0.373923 0.309502 0.443298
1375 1 0.213474 0.0476759 0.127
835 1 0.294031 0.324937 0.466443
1286 1 0.265341 0.354033 0.396242
1082 1 0.0312693 0.140697 0.0107292
629 1 0.329768 0.0957338 0.117431
180 1 0.316251 0.206483 0.0568663
1210 1 0.290807 0.142714 0.373114
1632 1 0.28605 0.0937608 0.466568
263 1 0.241662 0.285282 0.249094
562 1 0.0406129 0.464391 0.220519
325 1 0.478029 0.386986 0.42376
601 1 0.382741 0.250084 0.0335078
655 1 0.230702 0.490823 0.301489
208 1 0.412545 0.424311 0.408038
818 1 0.0224963 0.241336 0.322121
1178 1 0.319685 0.127015 0.291402
79 1 0.237493 0.287683 0.432678
990 1 0.0906806 0.239896 0.228104
690 1 0.226959 0.258763 0.352347
754 1 0.233307 0.333197 0.166457
1217 1 0.137961 0.417982 0.477055
461 1 0.349319 0.394774 0.243777
251 1 0.36722 0.0659571 0.437835
581 1 0.131139 0.406282 0.0450465
197 1 0.0939006 0.321832 0.319618
947 1 0.044116 0.183641 0.191715
1503 1 0.428105 0.495737 0.0427029
443 1 0.399108 0.339238 0.30053
149 1 0.24508 0.0967276 0.0581532
1101 1 0.0122578 0.464637 0.383099
970 1 0.462524 0.443774 0.084216
83 1 0.413507 0.351243 0.374797
1026 1 0.0187138 0.0644042 0.279781
1148 1 0.363495 0.459543 0.365315
1186 1 0.393339 0.27566 0.233797
1728 1 0.177224 0.401973 0.422562
1124 1 0.124312 0.278691 0.457179
202 1 0.381914 0.00481179 0.342456
495 1 0.138098 0.264575 0.367065
484 1 0.171991 0.330167 0.380333
960 1 0.475414 0.130426 0.185422
3 1 0.1905 0.0999577 0.421833
1460 1 0.479818 0.0062503 0.0239621
2047 1 0.154778 0.205011 0.32929
1242 1 0.237233 0.486606 0.051083
531 1 0.0694069 0.345844 0.196228
1896 1 0.448439 0.321458 0.123993
836 1 0.447344 0.307451 0.0532196
1712 1 0.340332 0.364226 0.110971
1825 1 0.465617 0.276839 0.486987
1379 1 0.102762 0.485813 0.248013
1627 1 0.464464 0.337776 0.22979
1313 1 0.266708 0.426848 0.422296
95 1 0.153528 0.38863 0.339611
1772 1 0.483805 0.21782 0.352107
143 1 0.497796 0.1548 0.300195
1458 1 0.482007 0.0770256 0.258011
1986 1 0.358185 0.0770955 0.187837
2036 1 0.132301 0.0231529 0.364478
499 1 0.350973 0.394799 0.330536
1158 1 0.405498 0.210492 0.32935
2046 1 0.492622 0.473485 0.486377
1695 1 0.105811 0.178105 0.0222229
1750 1 0.485562 0.177769 0.017687
34 1 0.462374 0.11019 0.412666
963 1 0.0211925 0.24854 0.161954
2003 1 0.459372 0.474475 0.264354
610 1 0.27562 0.0735887 0.168537
349 1 0.0771248 0.0778569 0.0069734
672 1 0.130558 0.00405835 0.112321
1953 1 0.478572 0.194808 0.161847
1259 1 0.143902 0.104532 0.487321
42 1 0.41586 0.0418947 0.388143
70 1 0.434183 0.17238 0.972901
1220 1 0.386957 0.0635583 0.777115
1069 1 0.451527 0.08978 0.610326
1323 1 0.194138 0.21581 0.602746
49 1 0.295605 0.177348 0.501917
529 1 0.156585 0.0869134 0.590408
502 1 0.251261 0.0654164 0.609618
1909 1 0.0629602 0.3145 0.59029
796 1 0.39235 0.0878575 0.500583
1074 1 0.499152 0.333029 0.507162
2016 1 0.136414 0.277738 0.635977
508 1 0.472106 0.272161 0.75592
876 1 0.282846 0.490406 0.771271
966 1 0.377475 0.136212 0.76702
1090 1 0.301351 0.289344 0.529124
1719 1 0.416301 0.0744346 0.675204
627 1 0.219465 0.397273 0.669987
430 1 0.380737 0.190427 0.844091
1727 1 0.418718 0.0303204 0.920494
585 1 0.0332123 0.0139842 0.527442
973 1 0.23873 0.108942 0.977548
1039 1 0.215416 0.307095 0.526622
1098 1 0.120463 0.326142 0.686162
1697 1 0.0275351 0.0257724 0.670411
1855 1 0.147767 0.37767 0.72989
1238 1 0.370013 0.235109 0.66211
269 1 0.34971 0.00309244 0.817608
1084 1 0.0222032 0.208812 0.919191
976 1 0.364311 0.278356 0.861609
561 1 0.0169215 0.477022 0.957346
725 1 0.16602 0.0958312 0.728954
768 1 0.445266 0.206284 0.691085
112 1 0.00864249 0.134658 0.528011
871 1 0.10755 0.207289 0.754479
1245 1 0.168687 0.368368 0.542024
1724 1 0.311644 0.270588 0.999911
919 1 0.44922 0.0501558 0.820321
2014 1 0.0737755 0.378064 0.91794
676 1 0.135479 0.190715 0.697342
399 1 0.427298 0.426215 0.898084
923 1 0.0732806 0.387036 0.702743
1330 1 0.160251 0.461201 0.549003
157 1 0.270444 0.417998 0.719135
837 1 0.11985 0.28657 0.527729
845 1 0.437627 0.385591 0.654441
1296 1 0.0971232 0.125515 0.734305
885 1 0.330711 0.365183 0.762493
1129 1 0.427372 0.18514 0.765047
967 1 0.166146 0.0940393 0.939826
1397 1 0.0418466 0.274871 0.840067
1916 1 0.350235 0.388564 0.587895
40 1 0.131883 0.320236 0.933876
175 1 0.386211 0.280573 0.520462
1021 1 0.316654 0.304389 0.799836
547 1 0.219273 0.14044 0.609584
2 1 0.0588358 0.360347 0.771567
704 1 0.370206 0.0880458 0.954436
1960 1 0.286333 0.169564 0.694175
621 1 0.251185 0.216203 0.793057
1038 1 0.0930796 0.482598 0.511597
1777 1 0.178794 0.415091 0.794381
1779 1 0.121068 0.200297 0.613253
965 1 0.0716181 0.239307 0.975769
1845 1 0.367881 0.198316 0.960766
1722 1 0.262427 0.372652 0.779721
1221 1 0.05988 0.305306 0.979904
1593 1 0.0830337 0.0663028 0.92797
798 1 0.473162 0.206528 0.531909
851 1 0.220304 0.333151 0.914136
776 1 0.407122 0.39215 0.800375
920 1 0.364145 0.425425 0.532068
277 1 0.206807 0.466991 0.888335
985 1 0.17655 0.476018 0.651624
1419 1 0.421001 0.381918 0.582226
924 1 0.463111 0.152451 0.817492
815 1 0.171188 0.148555 0.542083
1642 1 0.0769468 0.0431819 0.579612
1371 1 0.243992 0.11072 0.673128
1835 1 0.278093 0.49207 0.895626
353 1 0.138518 0.0150894 0.531958
121 1 0.310925 0.136289 0.592099
1264 1 0.461512 0.461256 0.960076
1870 1 0.0604596 0.228904 0.649481
479 1 0.394456 0.137622 0.616345
113 1 0.285185 0.463339 0.971525
1251 1 0.291129 0.233351 0.655871
715 1 0.333512 0.116746 0.67563
1688 1 0.190868 0.391527 0.865204
1393 1 0.318276 0.212574 0.582016
1189 1 0.0335068 0.0195149 0.990265
1372 1 0.072741 0.117222 0.572421
693 1 0.43274 0.369302 0.511823
1700 1 0.253424 0.245746 0.71754
142 1 0.278597 0.0319263 0.692979
1516 1 0.229382 0.130814 0.73922
1653 1 0.159118 0.227133 0.510709
1413 1 0.0259491 0.490108 0.690131
1721 1 0.0765967 0.231978 0.571002
132 1 0.173665 0.265558 0.790874
156 1 0.439604 0.00754521 0.75775
728 1 0.445224 0.111466 0.763106
31 1 0.112553 0.232485 0.827325
958 1 0.107949 0.480032 0.625945
227 1 0.262501 0.284884 0.604299
686 1 0.101781 0.46373 0.955434
1766 1 0.195017 0.0343808 0.558157
763 1 0.201144 0.0534022 0.668093
1587 1 0.325462 0.0932239 0.528775
1776 1 0.296251 0.362577 0.552044
1475 1 0.174745 0.249013 0.705967
1770 1 0.17523 0.115236 0.804883
1789 1 0.281316 0.4342 0.6144
408 1 0.107897 0.37264 0.591795
1445 1 0.30445 0.298014 0.72443
1328 1 0.389903 0.240349 0.793977
1042 1 0.214584 0.00749414 0.739464
572 1 0.234849 0.301321 0.812535
1047 1 0.304749 0.332478 0.624429
922 1 0.379791 0.363841 0.937897
240 1 0.101737 0.0655572 0.804763
379 1 0.331537 0.386225 0.664612
1657 1 0.46009 0.150912 0.648666
7 1 0.116472 0.133232 0.626849
1773 1 0.149749 0.387265 0.645223
1422 1 0.374016 0.328803 0.660098
1327 1 0.0714344 0.426579 0.550024
1374 1 0.079138 0.338379 0.851058
127 1 0.0563695 0.088995 0.684481
440 1 0.0451365 0.0819707 0.753331
631 1 0.387829 0.0621343 0.585144
766 1 0.159393 0.371269 0.975434
736 1 0.189979 0.315841 0.669334
276 1 0.193849 0.198061 0.829757
921 1 0.387428 0.168801 0.547259
1738 1 0.146365 0.349375 0.814625
784 1 0.442243 0.0556857 0.539992
1119 1 0.296652 0.12903 0.792308
931 1 0.4765 0.344373 0.611473
734 1 0.495222 0.239925 0.818221
1800 1 0.337983 0.0283149 0.89288
454 1 0.183441 0.317152 0.740018
1658 1 0.234695 0.240036 0.871177
552 1 0.231809 0.365655 0.600962
1284 1 0.460755 0.296588 0.55127
383 1 0.351757 0.0461466 0.686997
682 1 0.0787489 0.28035 0.903826
1044 1 0.446805 0.451712 0.685722
1399 1 0.496481 0.012648 0.869454
1020 1 0.237688 0.231498 0.533027
910 1 0.129516 0.0751771 0.671504
2044 1 0.475918 0.386763 0.721071
2005 1 0.342364 0.0871817 0.828891
1322 1 0.405901 0.320965 0.768321
1528 1 0.110895 0.476936 0.871032
1066 1 0.0203481 0.23001 0.724215
1269 1 0.444278 0.459347 0.761217
442 1 0.0889619 0.197691 0.907304
105 1 0.148458 0.163377 0.953463
944 1 0.325166 0.244032 0.921695
489 1 0.0404384 0.317988 0.666615
1874 1 0.000169596 0.105424 0.638246
145 1 0.405916 0.277433 0.713903
892 1 0.0598937 0.16148 0.686902
87 1 0.0780065 0.402055 0.984945
421 1 0.393791 0.230765 0.908953
1808 1 0.345984 0.000605539 0.573963
150 1 0.0321328 0.461044 0.613211
1428 1 0.4824 0.149309 0.718349
319 1 0.105285 0.407125 0.825807
795 1 0.292635 0.337587 0.929305
1638 1 0.0886341 0.128158 0.877452
1641 1 0.0251967 0.456015 0.875083
1624 1 0.180571 0.307409 0.592196
260 1 0.0257106 0.165862 0.606533
474 1 0.230807 0.482143 0.598361
1463 1 0.468997 0.4258 0.54536
352 1 0.476714 0.314093 0.694578
1414 1 0.494146 0.46255 0.62618
930 1 0.156786 0.00270497 0.699039
1325 1 0.177443 0.466852 0.742871
914 1 0.478413 0.355491 0.873977
355 1 0.25879 0.415468 0.882975
1863 1 0.430294 0.457567 0.829309
1993 1 0.192021 0.191619 0.752642
873 1 0.251886 0.228375 0.961936
187 1 0.157308 0.0539002 0.862418
1077 1 0.315681 0.213713 0.762242
844 1 0.314884 0.0808209 0.736825
951 1 0.412897 0.23146 0.577869
760 1 0.110769 0.148806 0.797166
1577 1 0.435961 0.276614 0.858796
565 1 0.288364 0.196815 0.851213
705 1 0.277334 0.0601059 0.866019
869 1 0.0684942 0.271356 0.755514
1346 1 0.366347 0.346872 0.530943
438 1 0.39996 0.347146 0.864008
812 1 0.170541 0.0248183 0.796214
994 1 0.0369426 0.364846 0.544447
1694 1 0.322408 0.374777 0.873637
1836 1 0.320451 0.404268 0.978651
368 1 0.100542 0.448454 0.742351
1984 1 0.264311 0.442786 0.549588
778 1 0.47823 0.216502 0.934123
1686 1 0.476752 0.211434 0.60284
1063 1 0.369759 0.441506 0.691956
350 1 0.2347 0.457912 0.812651
800 1 0.394339 0.150709 0.695608
1524 1 0.364336 0.291564 0.594699
507 1 0.334026 0.160801 0.899642
609 1 0.0326168 0.406784 0.815907
714 1 0.220471 0.397951 0.942981
1023 1 0.209654 0.181861 0.677094
1110 1 0.0986717 0.0156806 0.658492
1197 1 0.195875 0.268449 0.948546
1334 1 0.36595 0.428289 0.848588
1781 1 0.102056 0.173017 0.530571
992 1 0.350274 0.46626 0.93494
1182 1 0.250548 0.344745 0.715229
1788 1 0.269389 0.00616183 0.945267
1089 1 0.189875 0.0322467 0.918956
109 1 0.303358 0.0864812 0.929203
1078 1 0.427323 0.298117 0.952664
890 1 0.00532541 0.27798 0.912648
286 1 0.471329 0.071299 0.940244
1056 1 0.136668 0.415651 0.903975
1807 1 0.28817 0.00473331 0.624514
1509 1 0.0387826 0.204835 0.818959
483 1 0.34742 0.457315 0.764466
1117 1 0.302299 0.458325 0.838156
205 1 0.302717 0.158293 0.966261
538 1 0.170579 0.449744 0.955165
1956 1 0.0353996 0.458714 0.753796
1645 1 0.239186 0.118416 0.855823
1180 1 0.251472 0.0756382 0.777357
1333 1 0.23661 0.167489 0.909369
422 1 0.425738 0.471656 0.600728
56 1 0.420754 0.0982258 0.872617
326 1 0.262654 0.109478 0.552618
1690 1 0.159168 0.14559 0.872846
76 1 0.448451 0.379058 0.991541
329 1 0.289517 0.298833 0.870744
781 1 0.339078 0.482124 0.581455
272 1 0.162997 0.239958 0.891847
262 1 0.0612034 0.0665542 0.859708
941 1 0.474257 0.349795 0.793044
1974 1 0.0675714 0.479549 0.815164
224 1 0.402709 0.00843056 0.995107
1474 1 0.00750352 0.291147 0.529367
424 1 0.298651 0.0333092 0.503221
1485 1 0.493408 0.398638 0.927085
478 1 0.221364 0.0218159 0.843569
1581 1 0.0132137 0.360035 0.866283
1705 1 0.454131 0.248543 0.998627
852 1 0.313138 0.484187 0.667272
164 1 0.203726 0.0381414 0.98894
651 1 0.497002 0.129807 0.573457
1947 1 -0.00084636 0.344018 0.978374
96 1 0.284451 0.00241588 0.798939
1767 1 0.405192 0.500062 0.894593
544 1 0.212965 0.408507 0.506351
244 1 0.151034 0.780038 0.0796894
1161 1 0.296699 0.767365 0.0418503
1123 1 0.247847 0.687357 0.488188
453 1 0.459004 0.98205 0.398217
1607 1 0.176899 0.612504 0.476233
548 1 0.159887 0.888322 0.02618
2025 1 0.0766586 0.953679 0.308108
879 1 0.389529 0.771375 0.0192797
1076 1 0.102223 0.889587 0.407808
2011 1 0.28964 0.852297 0.0426824
1011 1 0.411488 0.726698 0.494862
1925 1 0.00610091 0.705872 0.189238
1859 1 0.486146 0.542649 0.0987485
1744 1 0.1373 0.658717 0.115412
1088 1 0.239547 0.882815 0.359035
2039 1 0.410157 0.549289 0.0978085
745 1 0.228794 0.884733 0.446311
1990 1 0.0731927 0.558355 0.289374
1967 1 0.208545 0.994089 0.36128
82 1 0.0665202 0.866977 0.127105
611 1 0.426576 0.875597 0.378757
1733 1 0.342501 0.954813 0.142406
1190 1 0.0302543 0.513718 0.0862891
1610 1 0.0609297 0.806604 0.268433
889 1 0.247436 0.551743 0.0235566
1473 1 0.453839 0.84796 0.179979
1320 1 0.228598 0.692341 0.420745
1003 1 0.0598061 0.83503 0.188165
1991 1 0.482517 0.529111 0.439663
801 1 0.471971 0.695729 0.214932
242 1 0.386904 0.568913 0.225212
433 1 0.0795516 0.87121 0.341111
73 1 0.211364 0.725749 0.0880372
2007 1 0.276112 0.941157 0.432881
1407 1 0.356917 0.6782 0.32993
1201 1 0.136679 0.837786 0.122059
450 1 0.273674 0.698361 0.15629
959 1 0.0842891 0.639599 0.253572
1208 1 0.217666 0.680458 0.00388112
183 1 0.3236 0.61641 0.244709
1683 1 0.0805454 0.91942 0.467114
1156 1 0.0160094 0.761332 0.0702709
946 1 0.361111 0.54949 0.381788
708 1 0.157765 0.875638 0.455257
1884 1 0.302295 0.863338 0.142431
1659 1 0.190793 0.758504 0.26849
527 1 0.282351 0.836377 0.223957
265 1 0.423554 0.912549 0.163872
280 1 0.255965 0.977475 0.0137757
583 1 0.205357 0.809651 0.0342515
409 1 0.00867169 0.850114 0.046697
1843 1 0.0308482 0.866454 0.242085
1053 1 0.179505 0.781585 0.150123
549 1 0.20567 0.934422 0.145655
1354 1 0.209173 0.872926 0.0959165
390 1 0.408056 0.72164 0.0700251
1091 1 0.435971 0.842539 0.067367
1440 1 0.317649 0.75388 0.227149
933 1 0.20928 0.939038 0.0671782
1215 1 0.398978 0.511014 0.302505
1241 1 0.0520025 0.807888 -0.000517637
464 1 0.0330112 0.745981 0.329022
1879 1 0.0157923 0.989543 0.322945
1067 1 0.373609 0.832285 0.23808
1871 1 0.337206 0.901386 0.467322
1745 1 0.28939 0.793313 0.311988
1140 1 0.428346 0.665409 0.289255
847 1 0.234509 0.693362 0.331124
759 1 0.348418 0.885161 0.0773888
955 1 0.338641 0.964923 0.273293
45 1 0.414687 0.881905 0.234241
1095 1 0.348531 0.592802 0.062681
1559 1 0.131452 0.733033 0.128594
912 1 0.0988164 0.571297 0.481602
1996 1 0.350727 0.931419 0.0218164
765 1 0.117121 0.695644 0.0458753
642 1 0.0272081 0.606556 0.443585
887 1 0.0464527 0.573888 0.0210281
1476 1 0.188632 0.626143 0.0466321
1592 1 0.157802 0.632854 0.215789
1234 1 0.247236 0.571314 0.327399
1533 1 0.14426 0.606413 0.29602
65 1 0.0671825 0.956438 0.196023
375 1 0.323512 0.61498 0.164122
1571 1 0.104403 0.880965 0.262254
176 1 0.454314 0.745534 0.0169447
1287 1 0.359952 0.665838 0.106299
2023 1 0.0804415 0.523284 0.171555
1574 1 0.204452 0.666841 0.258389
1831 1 0.341425 0.681527 0.177415
2032 1 0.250133 0.816495 0.0899995
1662 1 0.346942 0.541483 0.161
1915 1 0.104189 0.734736 0.270854
904 1 0.368619 0.692713 0.249082
460 1 0.291646 0.753105 0.110681
883 1 0.0488019 0.575552 0.224801
351 1 0.498776 0.72162 0.122128
1484 1 0.402147 0.619478 0.140978
1449 1 0.37827 0.836907 0.4341
192 1 0.33564 0.795816 0.155677
1811 1 0.448716 0.758295 0.414105
567 1 0.421453 0.607674 0.0419939
1994 1 0.0847684 0.967514 0.383682
1292 1 0.242983 0.549094 0.182353
395 1 0.316805 0.651334 0.0245177
1479 1 0.438153 0.788321 0.138302
1740 1 0.218356 0.998501 0.488759
123 1 0.0247773 0.86091 0.393575
819 1 0.409178 0.503661 0.42256
1424 1 0.195564 0.784263 0.338638
5 1 0.0782108 0.638892 0.362396
1692 1 0.29987 0.682365 0.427594
364 1 0.443864 0.922016 0.0202399
1532 1 0.113177 0.585649 0.174865
61 1 0.343136 0.717988 0.0067243
188 1 0.151487 0.87543 0.340069
1083 1 0.468903 0.650407 0.138825
1213 1 0.18024 0.560136 0.259846
174 1 0.00631757 0.634684 0.366939
72 1 0.383754 0.602292 0.287342
1263 1 0.084559 0.793407 0.336518
293 1 0.255203 0.774265 0.170241
1970 1 0.414497 0.953576 0.309184
1204 1 0.456237 0.821576 0.471279
230 1 0.421532 0.542623 0.17013
426 1 0.163746 0.595003 0.112347
1955 1 0.346311 0.996781 0.0672129
709 1 0.155484 0.549362 0.441466
872 1 0.38496 0.867527 0.0187131
129 1 0.261858 0.760783 0.467148
201 1 0.335373 0.525565 0.0793499
592 1 0.383676 0.743957 0.184417
131 1 0.474149 0.903036 0.27714
1470 1 0.454203 0.946759 0.21925
925 1 0.194157 0.512504 0.388446
138 1 0.00825559 0.713008 0.262399
1529 1 0.125987 0.814376 0.0222547
1248 1 0.310023 0.547893 0.246615
228 1 0.0832163 0.627975 0.0773035
273 1 0.13392 0.826615 0.2064
482 1 0.41624 0.646723 0.380045
1050 1 0.0794166 0.76526 0.415197
1400 1 0.0932933 0.692005 0.42547
1467 1 0.0850803 0.560806 0.39615
1254 1 0.0728995 0.683931 0.197052
1591 1 0.271661 0.603968 0.102883
1495 1 0.131083 0.804669 0.477636
1629 1 0.377983 0.649825 0.443763
434 1 0.352315 0.745477 0.29553
859 1 0.417169 0.940213 0.0858477
782 1 0.121933 0.896202 0.168227
1840 1 0.231314 0.814913 0.426131
1311 1 0.350243 0.787189 0.383514
1377 1 0.0420682 1.0009 0.244023
755 1 0.254581 0.624376 0.4578
622 1 0.432353 0.934434 0.475473
1672 1 0.013143 0.603028 0.0864212
744 1 0.454772 0.660351 0.453772
1416 1 0.184114 0.975001 0.42723
1936 1 0.246087 0.590467 0.248701
934 1 0.31811 0.549508 0.322061
731 1 0.489123 0.91383 0.426169
2015 1 0.294919 0.642157 0.311111
115 1 0.470309 0.513147 0.348748
780 1 0.425827 0.569737 0.36033
1660 1 0.491236 0.754615 0.472119
52 1 0.225638 0.843133 0.269707
204 1 0.0949168 0.717331 0.357688
856 1 0.368752 0.705856 0.393875
191 1 0.398384 0.645727 0.206642
721 1 0.33708 0.884818 0.215399
1675 1 0.115127 0.752573 0.199808
111 1 0.240547 0.535854 0.101596
1034 1 0.222082 0.61795 0.186093
640 1 0.245109 0.764327 0.382191
389 1 0.376719 0.888742 0.298184
1883 1 0.430932 0.778644 0.227531
1179 1 0.040031 0.578842 0.145462
1410 1 0.0108702 0.997079 0.0509177
874 1 0.491841 0.558512 0.191843
751 1 0.204545 0.675827 0.14147
891 1 0.141946 0.948104 0.477869
278 1 0.150233 0.937563 0.380255
1849 1 0.250463 0.986539 0.105642
1615 1 0.161364 0.674167 0.380423
1461 1 0.467841 0.609037 0.241224
1387 1 0.059286 0.941045 0.032838
140 1 0.228633 0.930949 0.220857
107 1 0.490024 0.846797 0.395915
1435 1 0.25348 0.908212 0.0215768
574 1 0.17725 0.725944 0.20988
80 1 0.0136539 0.643673 0.152684
1780 1 0.358718 0.771719 0.454797
1224 1 0.15654 0.746068 0.419974
546 1 0.307271 0.726368 0.35298
1403 1 0.280177 0.673762 0.225432
1806 1 0.0153699 0.896968 0.315494
1897 1 0.0750672 0.80663 0.0934353
1942 1 0.139157 0.689183 0.30936
1869 1 0.449896 0.738822 0.308828
1992 1 0.308981 0.853826 0.353226
93 1 0.0583426 0.762362 0.155744
986 1 0.059108 0.642927 0.495675
674 1 0.0579599 0.698979 0.107983
1644 1 0.325361 0.635723 0.378876
1594 1 0.274502 0.932936 0.162513
1543 1 0.393809 0.850565 0.143821
339 1 0.0972342 0.999761 0.0158998
137 1 0.447071 0.829057 0.298793
386 1 0.430662 0.593002 0.456024
1358 1 0.171016 0.538143 0.165565
535 1 0.0707363 0.838366 0.444839
1107 1 0.0213234 0.998775 0.463901
1282 1 0.467066 0.543856 0.28184
135 1 0.225256 0.632903 0.379239
1567 1 0.292704 0.903111 0.272277
257 1 0.281885 0.94145 0.353961
1596 1 0.226323 0.557647 0.462576
417 1 0.155243 0.943809 0.274626
1637 1 0.176833 0.997584 0.168697
448 1 0.163097 0.685441 0.47997
1934 1 0.0536085 0.947591 0.10259
1534 1 0.355122 0.98809 0.426573
1369 1 0.282602 0.552017 0.386532
832 1 0.378235 0.794492 0.0987656
1647 1 0.112167 0.576717 0.0437784
1902 1 0.146644 0.82877 0.394499
266 1 0.0876497 0.875151 0.00251089
1987 1 0.340575 0.995548 0.208262
743 1 0.433741 0.533258 0.498198
522 1 0.12842 0.523317 0.337516
864 1 0.138803 0.80797 0.289497
1275 1 0.189457 0.854106 0.172767
1796 1 0.468374 0.980266 0.129549
12 1 0.304725 0.820328 0.451342
345 1 0.143061 0.918719 0.0923435
432 1 0.016292 0.545093 0.347454
1746 1 0.235678 0.987488 0.272199
975 1 0.134082 0.611944 0.410929
2009 1 0.173508 0.584643 0.357939
1782 1 0.359466 0.581309 0.456184
184 1 0.385919 0.926278 0.407767
1802 1 0.0239855 0.935639 0.39122
1498 1 0.348025 0.938387 0.34839
671 1 0.128317 0.518078 0.104001
1584 1 0.477977 0.920032 0.354321
488 1 0.154816 0.519695 0.0395704
1901 1 0.0308166 0.718381 0.0155311
575 1 0.0124878 0.899152 0.473408
1677 1 0.490044 0.683788 0.00716501
687 1 0.017502 0.814972 0.32645
324 1 0.407478 0.991669 0.187561
619 1 0.491218 0.524883 0.0284586
261 1 0.491359 0.598787 0.0524859
435 1 0.00673214 0.526525 0.454826
2031 1 0.408792 0.500023 0.222584
936 1 0.271238 0.502322 0.448947
696 1 0.347631 0.501457 0.00162537
466 1 0.0570185 0.626345 0.836429
558 1 0.197387 0.884863 0.951919
1775 1 0.399332 0.950718 0.748124
1009 1 0.415937 0.945522 0.956615
513 1 0.325883 0.935298 0.620787
1599 1 0.062213 0.756692 0.593584
982 1 0.23278 0.50389 0.950596
943 1 0.277341 0.871066 0.826834
449 1 0.0738992 0.769987 0.502675
1545 1 0.0171276 0.659096 0.967477
1716 1 0.21752 0.571237 0.574319
235 1 0.0177819 0.84781 0.734499
1941 1 0.243902 0.89656 0.592281
243 1 0.155369 0.685588 0.91085
1144 1 0.241396 0.703301 0.804859
1200 1 0.251525 0.767179 0.976478
238 1 0.222971 0.917096 0.837801
822 1 0.0619684 0.907053 0.881994
1499 1 0.267798 0.900454 0.504377
1550 1 0.170559 0.553049 0.514503
1317 1 0.297378 0.717882 0.89682
616 1 0.249842 0.599445 0.855094
514 1 0.13559 0.599426 0.64184
1386 1 0.318737 0.813958 0.981543
1538 1 0.165537 0.57149 0.704043
231 1 0.295438 0.55145 0.531734
1877 1 0.00842462 0.926425 0.606473
69 1 0.314666 0.630425 0.564192
1708 1 0.0228881 0.621359 0.677453
2006 1 0.16136 0.834798 0.866595
336 1 0.230736 0.969466 0.683006
1395 1 0.488493 0.990626 0.646373
465 1 0.185515 0.955432 0.913832
16 1 0.344052 0.861396 0.587242
1785 1 0.239932 0.625251 0.533901
128 1 0.128979 0.978334 0.60299
491 1 0.396364 0.621485 0.50993
1959 1 0.197191 0.799219 0.738624
608 1 0.139862 0.897928 0.803499
1219 1 0.100341 0.53095 0.744896
1983 1 0.432946 0.769403 0.89433
1203 1 0.498865 0.529476 0.592447
541 1 0.476025 0.570608 0.802416
1885 1 0.44722 0.987015 0.57635
1239 1 0.375797 0.726043 0.920796
468 1 0.0722836 0.559755 0.803858
102 1 0.365802 0.511267 0.702721
1580 1 0.171199 0.536374 0.767205
1281 1 0.154577 0.615369 0.574297
1130 1 0.190209 0.656197 0.77297
600 1 0.399689 0.699804 0.74717
615 1 0.340841 0.932082 0.802538
1555 1 0.186446 0.670268 0.545493
723 1 0.236892 0.509237 0.522767
957 1 0.120278 0.995293 0.9193
1602 1 0.203027 0.849753 0.806495
372 1 0.367897 0.549421 0.523088
1064 1 0.306482 0.658617 0.823869
1155 1 0.0876016 0.625311 0.988756
1875 1 0.0927337 0.598586 0.710113
710 1 0.378756 0.887256 0.658726
673 1 0.372827 0.766328 0.757796
1232 1 0.45505 0.522333 0.671432
1079 1 0.138256 0.748561 0.534598
881 1 0.122796 0.974806 0.760763
733 1 0.144214 0.690487 0.620534
1747 1 0.280939 0.967338 0.878141
493 1 0.0365474 0.536669 0.914555
1457 1 0.437726 0.809931 0.984838
1152 1 0.0942366 0.728489 0.686315
485 1 0.409205 0.599514 0.966958
662 1 0.459739 0.655965 0.691499
1521 1 0.333836 0.828527 0.811041
1037 1 0.219819 0.854253 0.51654
1450 1 0.301025 0.958979 0.683316
553 1 0.330576 0.644137 0.747542
193 1 0.0447247 0.699845 0.798306
520 1 0.373476 0.602653 0.688823
1336 1 0.463956 0.636957 0.944937
956 1 0.389041 0.817692 0.619121
1430 1 0.117558 0.678572 0.779222
406 1 0.296739 0.792182 0.61401
670 1 0.43165 0.891763 0.727841
606 1 0.123843 0.893718 0.711227
578 1 0.200925 0.930327 0.506598
1791 1 0.391856 0.789315 0.820601
151 1 0.209567 0.607869 0.651954
2045 1 0.346747 0.761237 0.572083
101 1 0.492018 0.915799 0.64183
81 1 0.199434 0.81141 0.603429
1539 1 0.401264 0.974877 0.657519
1135 1 0.42094 0.523842 0.968564
1027 1 0.16624 0.722572 0.744317
993 1 0.339623 0.835371 0.679413
1952 1 0.225237 0.683549 0.888913
282 1 0.0565001 0.787453 0.88332
1285 1 0.333251 0.987895 0.97141
1711 1 0.353598 0.956378 0.880754
831 1 0.353924 0.582315 0.814987
660 1 0.175546 0.768745 0.674881
2002 1 0.427292 0.884203 0.532951
472 1 0.171644 0.931556 0.665415
1235 1 0.277754 0.787822 0.541516
1343 1 0.127285 0.552685 0.857708
1763 1 0.448726 0.814282 0.556213
1617 1 0.281413 0.622432 0.633995
1293 1 0.435888 0.602609 0.651555
1071 1 0.191487 0.553424 0.909089
1086 1 0.175228 0.781411 0.816553
1128 1 0.334772 0.590592 0.881101
1337 1 0.115214 0.68166 0.548286