LAMMPS (15 Sep 2022)
OMP_NUM_THREADS environment is not set. Defaulting to 1 thread. (src/comm.cpp:98)
  using 1 OpenMP thread(s) per MPI task
# 2d WCA system, random initial configuration

#variable density equal 0.5
variable initial_temperature equal 3.0
variable final_temperature equal 0.1
variable dt equal 0.01
variable tau equal 100*${dt}
variable tau equal 100*0.01
variable thermo_time equal 50000*${dt}
variable thermo_time equal 50000*0.01
variable equil_steps equal 50000
variable run_steps equal 100000

units           lj
atom_style      atomic
dimension       3

lattice         fcc ${density}
lattice         fcc 0.8
Lattice spacing in x,y,z = 1.7099759 1.7099759 1.7099759
region          box block 0 8 0 8 0 8
# number of atom types
create_box      1 box
Created orthogonal box = (0 0 0) to (13.679808 13.679808 13.679808)
  2 by 2 by 2 MPI processor grid
create_atoms    1 box
Created 2048 atoms
  using lattice units in orthogonal box = (0 0 0) to (13.679808 13.679808 13.679808)
  create_atoms CPU = 0.000 seconds
mass 1 1.0

velocity all create ${initial_temperature} 12345
velocity all create 3 12345

pair_style      lj/cut 1.0
#type_1 type_2 epsilon sigma cutoff
pair_coeff      1 1 10.0 0.89089871814 1.0
pair_modify shift yes

timestep ${dt}
timestep 0.01
thermo ${thermo_time}
thermo 500

fix 1 all nvt temp ${initial_temperature} ${initial_temperature} ${tau}
fix 1 all nvt temp 3 ${initial_temperature} ${tau}
fix 1 all nvt temp 3 3 ${tau}
fix 1 all nvt temp 3 3 1
run ${equil_steps}
run 50000
Generated 0 of 0 mixed pair_coeff terms from geometric mixing rule
Neighbor list info ...
  update: every = 1 steps, delay = 0 steps, check = yes
  max neighbors/atom: 2000, page size: 100000
  master list distance cutoff = 1.3
  ghost atom cutoff = 1.3
  binsize = 0.65, bins = 22 22 22
  1 neighbor lists, perpetual/occasional/extra = 1 0 0
  (1) pair lj/cut, perpetual
      attributes: half, newton on
      pair build: half/bin/atomonly/newton
      stencil: half/bin/3d
      bin: standard
Per MPI rank memory allocation (min/avg/max) = 3.08 | 3.08 | 3.08 Mbytes
   Step          Temp          E_pair         E_mol          TotEng         Press     
         0   3              0              0              4.4978027      2.3988281    
       500   3.0311374      0.96433043     0              5.5088164      12.250978    
      1000   2.9655091      1.0508109      0              5.4969026      12.728284    
      1500   2.9777296      0.95996448     0              5.424378       12.178516    
      2000   2.9367672      0.94453053     0              5.3475303      11.992737    
      2500   3.0001596      0.96104864     0              5.4590906      12.294293    
      3000   3.0669938      1.0058442      0              5.6040886      12.540429    
      3500   3.0917302      0.90784332     0              5.5431742      11.919462    
      4000   3.0505589      0.95731436     0              5.5309185      12.140531    
      4500   2.8867538      0.94372414     0              5.2717405      11.97938     
      5000   2.9501649      0.99742973     0              5.4205163      12.354421    
      5500   2.9893069      0.96239472     0              5.4441657      12.155266    
      6000   2.9258234      0.9769639      0              5.363556       12.282314    
      6500   2.9677051      0.97926052     0              5.4286446      12.413283    
      7000   2.955384       0.97726791     0              5.4081794      12.205644    
      7500   2.9574147      0.92219658     0              5.3561525      12.058748    
      8000   2.9340119      1.0033681      0              5.402237       12.305184    
      8500   2.9693338      0.98696291     0              5.4387888      12.302441    
      9000   3.0197474      0.9528932      0              5.4803026      12.118022    
      9500   3.0299882      0.95446649     0              5.4972295      12.255346    
     10000   2.9623823      1.0363146      0              5.4777184      12.706095    
     10500   3.0341728      1.0560682      0              5.6051051      12.986954    
     11000   2.9541444      0.98918227     0              5.4182351      12.41759     
     11500   3.0379237      0.92118703     0              5.4758475      11.9648      
     12000   3.0067342      0.96155956     0              5.4694587      12.284432    
     12500   3.0273253      0.97266977     0              5.5114405      12.289086    
     13000   3.0744526      1.0164421      0              5.6258693      12.653085    
     13500   3.0633106      0.88019725     0              5.4729196      11.668601    
     14000   3.0153718      0.9941582      0              5.5150074      12.448962    
     14500   2.9792021      0.95601183     0              5.422633       12.10271     
     15000   2.997569       0.95470009     0              5.4488581      12.209147    
     15500   3.0270168      0.91945946     0              5.4577676      11.882565    
     16000   3.0553802      1.0112109      0              5.5920433      12.50816     
     16500   2.9866794      0.95447169     0              5.4323033      12.176776    
     17000   3.026243       0.93404339     0              5.4711913      12.018428    
     17500   3.0163116      1.0370345      0              5.5592927      12.809157    
     18000   2.9975143      1.0117489      0              5.505825       12.562704    
     18500   3.056998       0.94489125     0              5.5281493      12.138543    
     19000   3.0175864      1.0626405      0              5.5868099      12.922805    
     19500   3.0935569      1.0381643      0              5.6762339      12.76497     
     20000   2.9939402      0.97621014     0              5.4649276      12.303676    
     20500   3.0409098      0.96743988     0              5.5265774      12.157853    
     21000   3.039503       0.99944648     0              5.5564747      12.410249    
     21500   3.1400579      1.0274012      0              5.7351882      12.723255    
     22000   3.0868398      0.96253087     0              5.5905297      12.254212    
     22500   2.9692458      1.0145284      0              5.4662224      12.581557    
     23000   2.9831684      0.94460629     0              5.417174       12.032203    
     23500   3.003831       1.0152512      0              5.5187976      12.519726    
     24000   2.9509626      0.98129063     0              5.4055732      12.30851     
     24500   3.00151        0.90145539     0              5.401522       11.788919    
     25000   2.9388583      0.95488065     0              5.3610155      12.125746    
     25500   3.0016795      0.93856967     0              5.4388905      12.067444    
     26000   2.962963       1.0243848      0              5.4666592      12.640537    
     26500   2.9335617      0.8966906      0              5.2948846      11.671439    
     27000   2.9478052      1.0093253      0              5.4288741      12.438604    
     27500   2.8879598      0.97165506     0              5.3014795      12.032294    
     28000   2.989035       0.98017128     0              5.4615346      12.294733    
     28500   2.9568263      0.97775193     0              5.4108257      12.399329    
     29000   2.9946471      0.96987201     0              5.4596493      12.172298    
     29500   2.9989505      1.0151162      0              5.5113453      12.566353    
     30000   3.0025772      1.0900415      0              5.5917082      13.119337    
     30500   3.0549791      0.95226046     0              5.5324916      12.248804    
     31000   3.0242756      0.97975264     0              5.513951       12.385862    
     31500   3.0653842      0.9837628      0              5.579594       12.538135    
     32000   3.0383038      1.0229061      0              5.5781366      12.708369    
     32500   2.9555426      0.925619       0              5.3567681      11.940579    
     33000   3.0310113      0.9009172      0              5.4452142      11.803409    
     33500   2.9114172      0.95723416     0              5.3222275      12.18472     
     34000   2.9770642      0.97118612     0              5.434602       12.300574    
     34500   2.9300078      0.9888456      0              5.3817113      12.356743    
     35000   2.9988247      0.9564305      0              5.4524711      11.989027    
     35500   2.9471108      0.95283258     0              5.3713403      12.122412    
     36000   2.9778927      0.96729606     0              5.4319541      12.143087    
     36500   2.9896463      0.95084987     0              5.4331296      12.103044    
     37000   2.9715653      0.92895149     0              5.384123       12.04802     
     37500   2.962075       0.98346931     0              5.4244123      12.269549    
     38000   2.9994848      0.95868265     0              5.4557129      12.300152    
     38500   3.0698629      0.95683322     0              5.5593792      12.232422    
     39000   3.0245196      0.91967677     0              5.4542409      11.932387    
     39500   3.0980034      0.99164979     0              5.6363858      12.528941    
     40000   2.9633845      0.99641581     0              5.4393221      12.494726    
     40500   2.9559388      0.95443301     0              5.3861763      12.074506    
     41000   2.9875231      0.93453391     0              5.4136305      11.897885    
     41500   2.9608815      0.94510854     0              5.3842622      12.161635    
     42000   2.9986272      0.97377358     0              5.4695181      12.251543    
     42500   3.103114       0.92518454     0              5.5775828      11.977243    
     43000   2.9662808      0.9878967      0              5.4351453      12.461041    
     43500   2.975679       1.0397846      0              5.5011237      12.689803    
     44000   2.9061057      1.0307251      0              5.3877552      12.511732    
     44500   2.9795845      1.0038507      0              5.4710452      12.620766    
     45000   3.0045126      1.0058162      0              5.5103845      12.539609    
     45500   2.9919664      1.0067727      0              5.4925309      12.474114    
     46000   2.9722522      1.0223371      0              5.4785384      12.589538    
     46500   3.0003683      0.93716991     0              5.4355248      12.103242    
     47000   2.9775124      1.0376999      0              5.5017877      12.594337    
     47500   3.0553498      1.0151374      0              5.5959243      12.512428    
     48000   2.999592       0.91225555     0              5.4094465      11.860925    
     48500   2.9301127      0.97774969     0              5.3707727      12.163388    
     49000   2.9514762      1.0165298      0              5.4415824      12.39467     
     49500   3.0834871      1.0089153      0              5.6318875      12.565001    
     50000   3.0558805      0.9470168      0              5.5285994      12.206157    
Loop time of 4.35122 on 8 procs for 50000 steps with 2048 atoms

Performance: 9928255.982 tau/day, 11491.037 timesteps/s, 23.534 Matom-step/s
99.6% CPU use with 8 MPI tasks x 1 OpenMP threads

MPI task timing breakdown:
Section |  min time  |  avg time  |  max time  |%varavg| %total
---------------------------------------------------------------
Pair    | 0.42117    | 0.42735    | 0.43703    |   0.8 |  9.82
Neigh   | 2.2377     | 2.251      | 2.2635     |   0.6 | 51.73
Comm    | 1.2256     | 1.239      | 1.258      |   0.9 | 28.48
Output  | 0.0017218  | 0.0021133  | 0.0047846  |   2.2 |  0.05
Modify  | 0.26482    | 0.27145    | 0.27493    |   0.6 |  6.24
Other   |            | 0.1603     |            |       |  3.68

Nlocal:            256 ave         267 max         244 min
Histogram: 2 0 0 1 0 1 1 2 0 1
Nghost:          424.5 ave         442 max         406 min
Histogram: 1 1 0 0 1 2 1 0 1 1
Neighs:        935.625 ave        1016 max         868 min
Histogram: 1 0 1 2 0 2 1 0 0 1

Total # of neighbors = 7485
Ave neighs/atom = 3.6547852
Neighbor list builds = 20265
Dangerous builds = 0

unfix 1
dump           1 all atom ${run_steps} 3dWCA_T${final_temperature}_d${density}_N${run_steps}.lammpstrj
dump           1 all atom 100000 3dWCA_T${final_temperature}_d${density}_N${run_steps}.lammpstrj
dump           1 all atom 100000 3dWCA_T0.1_d${density}_N${run_steps}.lammpstrj
dump           1 all atom 100000 3dWCA_T0.1_d0.8_N${run_steps}.lammpstrj
dump           1 all atom 100000 3dWCA_T0.1_d0.8_N100000.lammpstrj
dump           2 all dcd ${thermo_time} 3dWCA_T${final_temperature}_d${density}_N${run_steps}.dcd
dump           2 all dcd 500 3dWCA_T${final_temperature}_d${density}_N${run_steps}.dcd
dump           2 all dcd 500 3dWCA_T0.1_d${density}_N${run_steps}.dcd
dump           2 all dcd 500 3dWCA_T0.1_d0.8_N${run_steps}.dcd
dump           2 all dcd 500 3dWCA_T0.1_d0.8_N100000.dcd
fix 1 all nvt temp ${initial_temperature} ${final_temperature} ${tau}
fix 1 all nvt temp 3 ${final_temperature} ${tau}
fix 1 all nvt temp 3 0.1 ${tau}
fix 1 all nvt temp 3 0.1 1

run ${run_steps}
run 100000
Generated 0 of 0 mixed pair_coeff terms from geometric mixing rule
Per MPI rank memory allocation (min/avg/max) = 3.136 | 3.136 | 3.136 Mbytes
   Step          Temp          E_pair         E_mol          TotEng         Press     
     50000   3.0558805      0.9470168      0              5.5285994      12.206157    
     50500   3.0676885      0.97692873     0              5.5762147      12.389693    
     51000   3.0412569      1.0612522      0              5.62091        13.058902    
     51500   2.9290617      0.98932737     0              5.3807746      12.254422    
     52000   2.9743703      0.97302372     0              5.4324007      12.157555    
     52500   2.9765289      0.97681718     0              5.4394305      12.213531    
     53000   2.9735079      0.90992926     0              5.3680133      11.661686    
     53500   2.9456072      0.93804734     0              5.3543008      11.896563    
     54000   2.9297971      0.98051251     0              5.3730623      12.219133    
     54500   2.9161416      0.94530631     0              5.3173829      11.964596    
     55000   2.8595326      0.94307344     0              5.230278       11.870689    
     55500   2.7724461      0.9219352      0              5.0785738      11.635168    
     56000   2.8000796      0.91743862     0              5.1155072      11.600596    
     56500   2.7946191      0.81862087     0              5.0085027      11.059023    
     57000   2.822401       0.87484108     0              5.1063755      11.434181    
     57500   2.8181538      0.96122196     0              5.1863885      12.024975    
     58000   2.7463831      0.90206435     0              5.0196274      11.661953    
     58500   2.7301647      0.94442286     0              5.0376703      11.858157    
     59000   2.6889368      0.75616072     0              4.7875964      10.458334    
     59500   2.6599048      0.85490337     0              4.8428124      11.257336    
     60000   2.6512523      0.90294763     0              4.8778842      11.47241     
     60500   2.6723378      0.86547875     0              4.8720282      11.110538    
     61000   2.6669221      0.9171626      0              4.9155924      11.51424     
     61500   2.6908116      0.85700028     0              4.8912469      11.217558    
     62000   2.6572958      0.86122048     0              4.8452179      11.149168    
     62500   2.7299808      0.82815771     0              4.9211294      11.071957    
     63000   2.6400134      0.9629415      0              4.921028       11.923986    
     63500   2.6456499      0.85327802     0              4.8198152      11.198422    
     64000   2.654487       0.80869666     0              4.7884829      10.779392    
     64500   2.6329184      0.78625161     0              4.7337008      10.725744    
     65000   2.5223037      0.80238105     0              4.5839892      10.530924    
     65500   2.608811       0.69063319     0              4.6019389      9.8404627    
     66000   2.5070995      0.82416525     0              4.5829782      10.833956    
     66500   2.5221187      0.73457341     0              4.5159042      10.12371     
     67000   2.4275972      0.80055077     0              4.4401685      10.562512    
     67500   2.5112841      0.75433982     0              4.5194267      10.238405    
     68000   2.5437584      0.76618312     0              4.5799577      10.459248    
     68500   2.4646681      0.79195878     0              4.4871557      10.479865    
     69000   2.5282847      0.76980651     0              4.5603818      10.210555    
     69500   2.415005       0.73095075     0              4.3516895      9.9956754    
     70000   2.4073595      0.75854564     0              4.3678216      10.240266    
     70500   2.356892       0.81679687     0              4.3504087      10.597788    
     71000   2.3347646      0.73957305     0              4.24001        10.070039    
     71500   2.3755804      0.76462951     0              4.3262602      10.247032    
     72000   2.4003489      0.75345539     0              4.3522207      10.132342    
     72500   2.3873571      0.75777493     0              4.337062       10.128787    
     73000   2.3389287      0.70951549     0              4.2161954      9.7896239    
     73500   2.2851919      0.77501057     0              4.2011247      10.106321    
     74000   2.3075873      0.75811212     0              4.2178029      10.114222    
     74500   2.3677326      0.71074437     0              4.2606091      9.7265799    
     75000   2.4185114      0.64948476     0              4.2754805      9.4828136    
     75500   2.2755165      0.71503932     0              4.1266474      9.700378     
     76000   2.299512       0.71202092     0              4.1596047      9.7509511    
     76500   2.1849419      0.71488543     0              3.9906979      9.5997523    
     77000   2.1704919      0.6876207      0              3.9417689      9.2901849    
     77500   2.1407432      0.67052079     0              3.8800677      9.263946     
     78000   2.1959671      0.65487466     0              3.9472169      9.2270924    
     78500   2.207179       0.63354967     0              3.9427016      9.0388114    
     79000   2.1701054      0.69146983     0              3.9450385      9.4132104    
     79500   2.1520966      0.69628813     0              3.9228567      9.4950828    
     80000   2.1196769      0.669762       0              3.8477248      9.4186674    
     80500   2.1433829      0.68486109     0              3.8983656      9.4447476    
     81000   2.1196268      0.61781335     0              3.7957011      8.8244068    
     81500   2.1110549      0.62166881     0              3.786705       8.8972681    
     82000   2.0884972      0.66019597     0              3.7914121      9.1516244    
     82500   2.072852       0.61835894     0              3.7261187      8.8735868    
     83000   2.0702311      0.67601315     0              3.7798436      9.4406036    
     83500   2.04033        0.65080828     0              3.7098089      9.0440325    
     84000   2.0474055      0.64718464     0              3.7167933      9.0277715    
     84500   2.0569581      0.60866376     0              3.6925944      8.748381     
     85000   2.0121764      0.62248437     0              3.6392752      8.6856483    
     85500   2.0026003      0.62498818     0              3.6274219      8.7371988    
     86000   1.9561406      0.63165973     0              3.5644378      8.8212932    
     86500   1.9741275      0.58333707     0              3.5430823      8.3619412    
     87000   1.9531049      0.56459273     0              3.4928197      8.1968254    
     87500   1.9259524      0.60778838     0              3.4953064      8.5359969    
     88000   1.8778694      0.53610273     0              3.3515314      7.9239749    
     88500   1.8689074      0.52851425     0              3.3305066      7.9380409    
     89000   1.8115583      0.54700488     0              3.2630155      8.0914894    
     89500   1.8270877      0.56618911     0              3.3054824      8.1435528    
     90000   1.8323779      0.55750931     0              3.304734       8.0331642    
     90500   1.8178754      0.5415139      0              3.2669955      7.9870257    
     91000   1.7993436      0.53513699     0              3.2328345      7.8064523    
     91500   1.7910295      0.51685299     0              3.2020854      7.7354346    
     92000   1.7782027      0.51816775     0              3.1841693      7.7969516    
     92500   1.7506449      0.51550563     0              3.1401908      7.6500814    
     93000   1.7083039      0.51750134     0              3.0787061      7.6482249    
     93500   1.7133298      0.51347499     0              3.0822149      7.6843433    
     94000   1.7244565      0.47378414     0              3.0592059      7.3191306    
     94500   1.6706623      0.46622903     0              2.9709989      7.1667677    
     95000   1.6915184      0.46472784     0              3.0007666      7.263466     
     95500   1.6816372      0.4972857      0              3.0185098      7.4395222    
     96000   1.6798762      0.5393221      0              3.057906       7.9033082    
     96500   1.6589957      0.50239343     0              2.989672       7.4663746    
     97000   1.6540663      0.50661158     0              2.9864996      7.5211693    
     97500   1.6268241      0.44444149     0              2.8834861      6.9401503    
     98000   1.5861916      0.45613842     0              2.834264       7.0320494    
     98500   1.5688196      0.47343334     0              2.8255137      7.0871931    
     99000   1.557397       0.44731384     0              2.7822687      6.8991006    
     99500   1.5373906      0.43553041     0              2.7404903      6.8471335    
    100000   1.5248711      0.47266615     0              2.7588559      7.1656613    
    100500   1.5416552      0.43523642     0              2.74659        6.8423247    
    101000   1.5375004      0.44991296     0              2.7550374      6.9635695    
    101500   1.5026828      0.44282503     0              2.6957487      6.9072889    
    102000   1.4971499      0.44078648     0              2.6854148      6.8787181    
    102500   1.4832836      0.4649967      0              2.6888357      6.9222764    
    103000   1.5464633      0.4496344      0              2.7681966      6.9310817    
    103500   1.4580565      0.41327351     0              2.5992903      6.6394476    
    104000   1.4594633      0.39728758     0              2.5854136      6.3903434    
    104500   1.4230746      0.3959138      0              2.5294834      6.4459665    
    105000   1.4289015      0.37872417     0              2.5210299      6.1184351    
    105500   1.4255919      0.42272054     0              2.5600643      6.7082738    
    106000   1.4166526      0.39616811     0              2.5201094      6.358915     
    106500   1.3645815      0.39611258     0              2.4419854      6.2853697    
    107000   1.3031099      0.39689804     0              2.3506084      6.3110207    
    107500   1.3044712      0.36472894     0              2.3204804      6.0094466    
    108000   1.2625306      0.35853356     0              2.2514048      5.9140406    
    108500   1.2724996      0.35138346     0              2.2592008      5.8520318    
    109000   1.2673201      0.36317831     0              2.2632302      5.9689832    
    109500   1.2653921      0.36617981     0              2.2633411      6.002096     
    110000   1.2089902      0.39235985     0              2.2049596      6.0164278    
    110500   1.2088172      0.3606254      0              2.1729658      5.9015486    
    111000   1.2147309      0.34313218     0              2.1643388      5.6769802    
    111500   1.2044616      0.35942279     0              2.165233       5.8395724    
    112000   1.2193141      0.32956809     0              2.1576462      5.5937406    
    112500   1.2008892      0.32050766     0              2.1209619      5.4813089    
    113000   1.1834606      0.33667638     0              2.1110006      5.5802831    
    113500   1.1806554      0.29282395     0              2.0629422      5.1816467    
    114000   1.1624763      0.31646299     0              2.0593261      5.3567402    
    114500   1.136806       0.30902548     0              2.0134018      5.2619965    
    115000   1.1039006      0.27783124     0              1.9328736      5.0125481    
    115500   1.06245        0.29646309     0              1.8893599      5.1386684    
    116000   1.0588206      0.28010146     0              1.8675569      4.9551837    
    116500   1.0378359      0.27254832     0              1.8285421      4.8598047    
    117000   1.0184449      0.30727042     0              1.8341918      5.1467339    
    117500   1.0412541      0.27273626     0              1.8338548      4.8617871    
    118000   1.0129789      0.26767022     0              1.7863966      4.7245345    
    118500   1.0053352      0.26207781     0              1.7693442      4.7309784    
    119000   0.98693718     0.25227868     0              1.7319616      4.5844693    
    119500   0.99009392     0.25194574     0              1.7363615      4.5767186    
    120000   0.989945       0.25634019     0              1.7405326      4.6873387    
    120500   0.9667672      0.25893175     0              1.7083745      4.6644717    
    121000   0.93332618     0.24666866     0              1.6459743      4.5084981    
    121500   0.90472177     0.24453072     0              1.6009507      4.5222623    
    122000   0.9144075      0.21460809     0              1.5855496      4.2054132    
    122500   0.88902994     0.24402622     0              1.57692        4.3796683    
    123000   0.89701554     0.21951805     0              1.5643844      4.2237605    
    123500   0.88967219     0.22817744     0              1.5620341      4.2923466    
    124000   0.84991014     0.19606143     0              1.4703041      3.8140692    
    124500   0.84487996     0.20267827     0              1.4693794      3.9543758    
    125000   0.82348693     0.20005397     0              1.4346812      3.9361965    
    125500   0.79724584     0.20897673     0              1.4042616      3.9551318    
    126000   0.78115428     0.18273632     0              1.3538956      3.634376     
    126500   0.78389063     0.18876481     0              1.3640266      3.7079994    
    127000   0.77323514     0.1882781      0              1.3475645      3.7361795    
    127500   0.76643855     0.18705571     0              1.3361522      3.7101487    
    128000   0.75036449     0.17183344     0              1.2968306      3.4909771    
    128500   0.75824515     0.17464718     0              1.3114595      3.515013     
    129000   0.7111077      0.15909475     0              1.2252355      3.3767784    
    129500   0.69655094     0.15690155     0              1.2012178      3.2835121    
    130000   0.65505825     0.16983318     0              1.1519408      3.4511708    
    130500   0.66502001     0.15188105     0              1.148924       3.2439408    
    131000   0.66356639     0.16156548     0              1.1564291      3.3595108    
    131500   0.64191439     0.13974347     0              1.1021449      3.0499183    
    132000   0.61157784     0.12727409     0              1.0441929      2.8376398    
    132500   0.60365223     0.13430166     0              1.0393379      2.9889529    
    133000   0.58154561     0.13482859     0              1.0067211      2.9366414    
    133500   0.57852709     0.13910294     0              1.0064699      2.9474838    
    134000   0.5563254      0.138651       0              0.97273163     2.9484735    
    134500   0.56391289     0.13074548     0              0.97620179     2.8693096    
    135000   0.53018141     0.12079066     0              0.91567446     2.7216962    
    135500   0.52211561     0.10854766     0              0.89133868     2.5453836    
    136000   0.51040573     0.10291848     0              0.86815325     2.4764171    
    136500   0.50045765     0.10349888     0              0.85381881     2.4566298    
    137000   0.4787472      0.11676456     0              0.83453471     2.6638602    
    137500   0.45534459     0.096325394    0              0.77900878     2.375004     
    138000   0.43086154     0.089239067    0              0.73521581     2.1745361    
    138500   0.43118031     0.088950997    0              0.73540566     2.2430105    
    139000   0.42407082     0.082475612    0              0.71827125     2.1009596    
    139500   0.40548574     0.080669467    0              0.6886011      2.064615     
    140000   0.39584817     0.091827582    0              0.68530991     2.2225019    
    140500   0.37135371     0.078496769    0              0.63525535     1.9750142    
    141000   0.3675693      0.067240925    0              0.61832565     1.816213     
    141500   0.35203118     0.069078855    0              0.59686779     1.8315249    
    142000   0.34146583     0.067149113    0              0.57909776     1.8237796    
    142500   0.31218493     0.062248723    0              0.53029747     1.678356     
    143000   0.30182596     0.059147859    0              0.51166574     1.6845175    
    143500   0.29155795     0.049481347    0              0.48660474     1.4899895    
    144000   0.28154138     0.047222002    0              0.46932786     1.4272536    
    144500   0.26284905     0.045350938    0              0.439432       1.4013241    
    145000   0.24310215     0.042205648    0              0.40668082     1.301784     
    145500   0.22818766     0.035613243    0              0.37772761     1.1571628    
    146000   0.21635516     0.036789326    0              0.3611636      1.1933691    
    146500   0.20339165     0.029607625    0              0.33454613     1.022038     
    147000   0.18550978     0.030904895    0              0.30903369     1.0389489    
    147500   0.17593658     0.025372988    0              0.289149       0.94596953   
    148000   0.16023023     0.022076474    0              0.26230446     0.84222086   
    148500   0.14458442     0.021736302    0              0.23850704     0.83583742   
    149000   0.1308021      0.01714277     0              0.21325011     0.69822343   
    149500   0.11619283     0.014619107    0              0.18882325     0.60736999   
    150000   0.10274972     0.011207415    0              0.16525674     0.52777251   
Loop time of 7.07795 on 8 procs for 100000 steps with 2048 atoms

Performance: 12206921.850 tau/day, 14128.382 timesteps/s, 28.935 Matom-step/s
99.3% CPU use with 8 MPI tasks x 1 OpenMP threads

MPI task timing breakdown:
Section |  min time  |  avg time  |  max time  |%varavg| %total
---------------------------------------------------------------
Pair    | 0.73301    | 0.74399    | 0.76189    |   1.0 | 10.51
Neigh   | 3.1412     | 3.1588     | 3.171      |   0.7 | 44.63
Comm    | 2.1579     | 2.1774     | 2.2117     |   1.0 | 30.76
Output  | 0.16678    | 0.16697    | 0.16814    |   0.1 |  2.36
Modify  | 0.5269     | 0.53789    | 0.54396    |   0.7 |  7.60
Other   |            | 0.293      |            |       |  4.14

Nlocal:            256 ave         263 max         247 min
Histogram: 1 0 0 2 0 0 2 2 0 1
Nghost:        417.125 ave         430 max         407 min
Histogram: 1 1 0 2 1 1 1 0 0 1
Neighs:         987.25 ave        1051 max         940 min
Histogram: 1 1 1 1 1 1 1 0 0 1

Total # of neighbors = 7898
Ave neighs/atom = 3.8564453
Neighbor list builds = 28362
Dangerous builds = 0
Total wall time: 0:00:11
